{"hardnessScaleMohs":"","opticalReflectivity":"","meltingPointFootnote":"","conductivityElectrical":"","standardCondition":"Solid","crystalStructure":"CubicFace","coefficientOfLinealThermalExpansion":"","flammabilityClass":"","molarHeatCapacity":"27.2","numberOfNeutrons":"138","series":"Actinide","vaporPressure":{"pa10":"","pa100kFootnote":"","pa100Footnote":"","pa100":"","pa1Footnote":"","pa1":"","pa1kFootnote":"","pa1k":"","pa10kFootnote":"","pa10Footnote":"","pa10k":"","pa100k":""},"casRegistryNumber":"7440-34-8","oxidationStates":"3","lineSpectra":[{"intensity":"0","airWavelength":"0","spectrum":"TBD"}],"numberOfElectrons":"89","magneticSusceptibility":"","atomicVolume":"22.54","abundanceCrust":"5.5x10⁻¹⁰","boilingPoint":"3198","discoveryYear":"1899","electroNegativity":"1.1","meltingPoint":"1051","elasticModulusBulk":"","boilingPointFootnote":"","ionizationPotentialSecond":"12.126","conductivityThermal":"0.12","discoveryLocation":"France","descr":"Silvery-white radioactive metal.","elasticModulusRigidity":"","discoverer":"André Debierne","ionicRadius":"1.119","numberOfProtons":"89","abundanceSea":"","atomicMass":"227.0277","molarVolume":"22.54","ionizationPotentialFirst":"5.17","hardnessScaleVickers":"","enthalpyOfAtomization":"301","density":"10","enthalpyOfFusion":"","opticalRefractiveIndex":"","qualitativeSolubility":"","name":"Actinium","specificHeat":"0.120","valenceElectronPotential":"38.6","covalentRadius":"","electronWorkFunction":"","valenceElectrons":[{"6d":"1"},{"7s":"2"}],"atomicMassKnownAccurately":false,"period":"7","symbol":"Ac","nuclidesAndIsotopes":[{"nuclideSymbol":"","decayEnergy":"","decayModes":"","zp":"","halfLife":"","nn":"","nuclearSpin":"","daughterIsotopes":"","isotopicComposition":"","atomicMass":""}],"elasticModulusYoungs":"","atomicMassFootnote":"a","incompatibilities":"","fillingOrbital":[{"6d":"1"}],"atomicRadius":"1.88","enthalpyOfVaporization":"","heatOfVaporization":"","hardnessScaleBrinell":"","group":"3","atomicNumber":89,"relativeGasDensity":"","ionizationPotentialThird":"","crossSection":"810","electroChemicalEquivalent":"2.82347","electronConfiguration":{"3d":"10","5s":"2","4s":"2","6p":"6","3s":"2","4f":"14","5p":"6","2s":"2","4p":"6","1s":"2","3p":"6","6d":"1","2p":"6","5d":"10","7s":"2","4d":"10","6s":"2"},"criticalTemperature":"","heatOfFusion":""}