{"hardnessScaleMohs":"2.5","opticalReflectivity":"97","meltingPointFootnote":"","conductivityElectrical":"0.63","standardCondition":"Solid","crystalStructure":"CubicFace","coefficientOfLinealThermalExpansion":"0.00001862","flammabilityClass":"Non-combustible solid (except as dust)","molarHeatCapacity":"25.350","numberOfNeutrons":"61","series":"Transition Metal","vaporPressure":{"pa100k":"2106","pa100kFootnote":"","pa100Footnote":"","pa100":"1302","pa1Footnote":"","pa1":"1010","pa1kFootnote":"","pa1k":"1509","pa10kFootnote":"","pa10Footnote":"","pa10k":"1782","pa10":"1140"},"casRegistryNumber":"7440-22-4","oxidationStates":"1","lineSpectra":[{"intensity":"0","airWavelength":"0","spectrum":"TBD"}],"numberOfElectrons":"47","magneticSusceptibility":"-19.5","atomicVolume":"10.3","abundanceCrust":"7.5x10⁻²","boilingPoint":"2162","discoveryYear":"Known to the ancients","electroNegativity":"1.93","meltingPoint":"961.78","elasticModulusBulk":"24.5","boilingPointFootnote":"","ionizationPotentialSecond":"21.49","conductivityThermal":"4.29","discoveryLocation":"?","descr":"Very soft and malleable metal. Apperance and odor vary depending upon specific compond.","elasticModulusRigidity":"2.5","discoverer":"Known to the ancients","ionicRadius":"1.26","numberOfProtons":"47","abundanceSea":"4x10⁻⁵","atomicMass":"107.8682","molarVolume":"","ionizationPotentialFirst":"7.576","hardnessScaleVickers":"251","enthalpyOfAtomization":"284.5","density":"10.5","enthalpyOfFusion":"11.3","opticalRefractiveIndex":"","qualitativeSolubility":"","name":"Silver","specificHeat":"0.235","atomicMassUncertainty":2,"valenceElectronPotential":"11.4","covalentRadius":"1.34","electronWorkFunction":"4.26","valenceElectrons":[{"4d":"10"},{"5s":"1"}],"atomicMassKnownAccurately":true,"period":"5","symbol":"Ag","nuclidesAndIsotopes":[{"nuclideSymbol":"","decayEnergy":"","decayModes":"","zp":"","halfLife":"","nn":"","nuclearSpin":"","daughterIsotopes":"","isotopicComposition":"","atomicMass":""}],"elasticModulusYoungs":"251","atomicMassFootnote":"g","incompatibilities":"10.27","fillingOrbital":[{"4d":"10"}],"atomicRadius":"1.75","enthalpyOfVaporization":"255.1","heatOfVaporization":"250.58","hardnessScaleBrinell":"24.5","group":"11","atomicNumber":47,"relativeGasDensity":"","ionizationPotentialThird":"34.83","crossSection":"63.8","electroChemicalEquivalent":"4.0246","electronConfiguration":{"4p":"6","5s":"1","3p":"6","4s":"2","2p":"6","3s":"2","2s":"2","3d":"10","1s":"2","4d":"10"},"criticalTemperature":"","heatOfFusion":"11.3"}