{"hardnessScaleMohs":"2.75","opticalReflectivity":"71","meltingPointFootnote":"","conductivityElectrical":"0.377","standardCondition":"Solid","crystalStructure":"CubicFace","coefficientOfLinealThermalExpansion":"0.000000239","flammabilityClass":"Combustable Solid, fine dust easily ignited","molarHeatCapacity":"24.200","numberOfNeutrons":"14","series":"Metal","vaporPressure":{"pa10":"1359","pa100kFootnote":"","pa100Footnote":"","pa100":"1544","pa1Footnote":"","pa1":"1209","pa1kFootnote":"","pa1k":"1781","pa10kFootnote":"","pa10Footnote":"","pa10k":"2091","pa100k":"2517"},"casRegistryNumber":"7429-90-5","oxidationStates":"3","lineSpectra":[{"intensity":"870","airWavelength":"4529.1900","spectrum":"Al III"},{"intensity":"1000","airWavelength":"4663.0560","spectrum":"Al II"},{"intensity":"600","airWavelength":"4666.8000","spectrum":"Al II"},{"intensity":"400","airWavelength":"5593.3020","spectrum":"Al II"},{"intensity":"1200","airWavelength":"5696.6000","spectrum":"Al III"},{"intensity":"1000","airWavelength":"5722.7300","spectrum":"Al III"},{"intensity":"400","airWavelength":"6006.4100","spectrum":"Al II"},{"intensity":"400","airWavelength":"6073.1980","spectrum":"Al II"},{"intensity":"400","airWavelength":"6183.4200","spectrum":"Al II"},{"intensity":"400","airWavelength":"6201.4630","spectrum":"Al II"},{"intensity":"400","airWavelength":"6243.3600","spectrum":"Al II"},{"intensity":"400","airWavelength":"6335.7010","spectrum":"Al II"},{"intensity":"40","airWavelength":"6696.0150","spectrum":"Al I"}],"numberOfElectrons":"13","magneticSusceptibility":"+16.5","atomicVolume":"10","abundanceCrust":"8.23x10⁴","boilingPoint":"2519","discoveryYear":"1825","electroNegativity":"1.61","meltingPoint":"660.32","elasticModulusBulk":"76","boilingPointFootnote":"","ionizationPotentialSecond":"18.828","conductivityThermal":"2.37","discoveryLocation":"Denmark","descr":"Silvery, light weight, non-magnetic, non-sparking, malleable metal.","elasticModulusRigidity":"26","discoverer":"Hans Christian Oersted","ionicRadius":"0.535","numberOfProtons":"13","abundanceSea":"2x10⁻³","atomicMass":"26.981538","ionizationPotentialFirst":"5.986","molarVolume":"9.99","hardnessScaleVickers":"167","enthalpyOfAtomization":"322.2","density":"2.70","enthalpyOfFusion":"10.67","opticalRefractiveIndex":"","qualitativeSolubility":"insoluble in H₂0; soluble in acid, alkaline solutions","name":"Aluminum","specificHeat":"0.897","atomicMassUncertainty":2,"valenceElectronPotential":"80.7","covalentRadius":"1.18","electronWorkFunction":"4.28","valenceElectrons":[{"3p":"1","3s":"2"}],"atomicMassKnownAccurately":true,"period":"3","symbol":"Al","nuclidesAndIsotopes":[{"nuclideSymbol":"Al21","decayEnergy":"","decayModes":"","zp":"","halfLife":"<35ns","nn":"8","nuclearSpin":"","daughterIsotopes":"","isotopicComposition":"Syn","atomicMass":"21.028"},{"nuclideSymbol":"Al22","decayEnergy":"13.080","decayModes":"ξ + P","zp":">0","halfLife":"70ms","nn":"9","nuclearSpin":"","daughterIsotopes":"Na21","isotopicComposition":"Syn","atomicMass":"22.02"},{"nuclideSymbol":"","decayEnergy":"18.580","decayModes":"ξ","zp":"","halfLife":"70ms","nn":"","nuclearSpin":"","daughterIsotopes":"Mg22","isotopicComposition":"","atomicMass":""},{"nuclideSymbol":"Al23","decayEnergy":"12.240","decayModes":"ξ","zp":"","halfLife":"0.47s","nn":"10","nuclearSpin":"","daughterIsotopes":"Mg23","isotopicComposition":"Syn","atomicMass":"23.0073"},{"nuclideSymbol":"","decayEnergy":"4.660","decayModes":"ξ + P","zp":"","halfLife":"0.47s","nn":"","nuclearSpin":"","daughterIsotopes":"Na22","isotopicComposition":"","atomicMass":""},{"nuclideSymbol":"Al24","decayEnergy":"4.562","decayModes":"ξ + α","zp":"0.04","halfLife":"2.053s","nn":"11","nuclearSpin":"4+","daughterIsotopes":"Ne20","isotopicComposition":"Syn","atomicMass":"23.9999"},{"nuclideSymbol":"","decayEnergy":"13.878","decayModes":"ξ","zp":"","halfLife":"2.053s","nn":"","nuclearSpin":"","daughterIsotopes":"Mg24","isotopicComposition":"","atomicMass":""},{"nuclideSymbol":"MS","decayEnergy":"0.426","decayModes":"IT","zp":"82","halfLife":"131.3ms","nn":"","nuclearSpin":"1+","daughterIsotopes":"","isotopicComposition":"Syn","atomicMass":"0.426MeV"},{"nuclideSymbol":"","decayEnergy":"14.304","decayModes":"ξ","zp":"18","halfLife":"131.3ms","nn":"","nuclearSpin":"","daughterIsotopes":"Mg24","isotopicComposition":"","atomicMass":""},{"nuclideSymbol":"","decayEnergy":"4.988","decayModes":"ξ + α","zp":"0.13","halfLife":"131.3ms","nn":"","nuclearSpin":"","daughterIsotopes":"Ne20","isotopicComposition":"","atomicMass":""},{"nuclideSymbol":"Al25","decayEnergy":"4.277","decayModes":"ξ","zp":"","halfLife":"7.183s","nn":"12","nuclearSpin":"5\/2+","daughterIsotopes":"Mg25","isotopicComposition":"Syn","atomicMass":"24.9904"},{"nuclideSymbol":"Al26","decayEnergy":"4.004","decayModes":"ξ","zp":"","halfLife":"7.17E⁵y","nn":"13","nuclearSpin":"5+","daughterIsotopes":"Mg26","isotopicComposition":"Syn","atomicMass":"25.9869"},{"nuclideSymbol":"MS","decayEnergy":"4.232","decayModes":"ξ","zp":"","halfLife":"6.3452s","nn":"","nuclearSpin":"0+","daughterIsotopes":"Mg26","isotopicComposition":"Syn","atomicMass":"0.228MeV"},{"nuclideSymbol":"Al27","decayEnergy":"","decayModes":"","zp":"","halfLife":"Stable","nn":"14","nuclearSpin":"5\/2+","daughterIsotopes":"","isotopicComposition":"100","atomicMass":"26.9815"},{"nuclideSymbol":"Al28","decayEnergy":"4.642","decayModes":"β-","zp":"","halfLife":"2.2414m","nn":"15","nuclearSpin":"3+","daughterIsotopes":"Si28","isotopicComposition":"Syn","atomicMass":"27.9819"},{"nuclideSymbol":"Al29","decayEnergy":"3.680","decayModes":"β-","zp":"","halfLife":"6.56m","nn":"16","nuclearSpin":"5\/2+","daughterIsotopes":"Si29","isotopicComposition":"Syn","atomicMass":"28.9804"},{"nuclideSymbol":"Al30","decayEnergy":"8.561","decayModes":"β-","zp":"","halfLife":"3.6s","nn":"17","nuclearSpin":"3+","daughterIsotopes":"Si30","isotopicComposition":"Syn","atomicMass":"29.983"},{"nuclideSymbol":"Al31","decayEnergy":"7.995","decayModes":"β-","zp":"","halfLife":"644ms","nn":"18","nuclearSpin":"5\/2+, 3\/2+","daughterIsotopes":"Si31","isotopicComposition":"Syn","atomicMass":"30.9839"},{"nuclideSymbol":"Al32","decayEnergy":"13.020","decayModes":"β-","zp":"","halfLife":"33ms","nn":"19","nuclearSpin":"1+","daughterIsotopes":"Si32","isotopicComposition":"Syn","atomicMass":"31.9881"},{"nuclideSymbol":"Al33","decayEnergy":"","decayModes":"","zp":"","halfLife":">1us","nn":"20","nuclearSpin":"","daughterIsotopes":"","isotopicComposition":"Syn","atomicMass":"32.9909"},{"nuclideSymbol":"Al34","decayEnergy":"9.560","decayModes":"β- + N","zp":"27","halfLife":"60ms","nn":"21","nuclearSpin":"","daughterIsotopes":"Si33","isotopicComposition":"Syn","atomicMass":"33.9969"},{"nuclideSymbol":"","decayEnergy":"17.090","decayModes":"β-","zp":"","halfLife":"60ms","nn":"","nuclearSpin":"","daughterIsotopes":"Si34","isotopicComposition":"","atomicMass":""},{"nuclideSymbol":"Al35","decayEnergy":"11.830","decayModes":"β- + N","zp":"65","halfLife":"150ms","nn":"22","nuclearSpin":"","daughterIsotopes":"Si34","isotopicComposition":"Syn","atomicMass":"34.999"},{"nuclideSymbol":"","decayEnergy":"14.300","decayModes":"β-","zp":"","halfLife":"150ms","nn":"","nuclearSpin":"","daughterIsotopes":"Si35","isotopicComposition":"","atomicMass":""},{"nuclideSymbol":"Al36","decayEnergy":"","decayModes":"","zp":"","halfLife":">1us","nn":"23","nuclearSpin":"","daughterIsotopes":"","isotopicComposition":"Syn","atomicMass":"36.006"},{"nuclideSymbol":"Al37","decayEnergy":"16.100","decayModes":"β-","zp":"","halfLife":"","nn":"24","nuclearSpin":"","daughterIsotopes":"Si37","isotopicComposition":"Syn","atomicMass":"37.01"},{"nuclideSymbol":"Al38","decayEnergy":"","decayModes":"","zp":"","halfLife":">200ns","nn":"25","nuclearSpin":"","daughterIsotopes":"","isotopicComposition":"Syn","atomicMass":"38.017"},{"nuclideSymbol":"Al39","decayEnergy":"","decayModes":"","zp":"","halfLife":">200ns","nn":"26","nuclearSpin":"","daughterIsotopes":"","isotopicComposition":"Syn","atomicMass":"39.022"}],"elasticModulusYoungs":"70","atomicMassFootnote":"","incompatibilities":"strong Oxidizers and acids, halogented hydrocarbons","fillingOrbital":[{"3p":"1"}],"atomicRadius":"1.82","enthalpyOfVaporization":"293.7","heatOfVaporization":"293.4","hardnessScaleBrinell":"245","group":"13","atomicNumber":13,"relativeGasDensity":"","ionizationPotentialThird":"28.447","crossSection":"232","electroChemicalEquivalent":"0.33556","electronConfiguration":{"3p":"1","2p":"6","3s":"2","2s":"2","1s":"2"},"criticalTemperature":"","heatOfFusion":"10.79"}