{"hardnessScaleMohs":"","opticalReflectivity":"","meltingPointFootnote":"","conductivityElectrical":"0.022","standardCondition":"Synthetic","crystalStructure":"Hexagonal","coefficientOfLinealThermalExpansion":"","flammabilityClass":"","molarHeatCapacity":"","numberOfNeutrons":"148","series":"Actinide","vaporPressure":{"pa100k":"","pa100kFootnote":"","pa100Footnote":"","pa100":"","pa1Footnote":"","pa1":"","pa1kFootnote":"","pa1k":"","pa10kFootnote":"","pa10Footnote":"","pa10k":"","pa10":""},"casRegistryNumber":"7440-35-9","oxidationStates":"6, 5, 4, 3","lineSpectra":[{"intensity":"0","airWavelength":"0","spectrum":"TBD"}],"numberOfElectrons":"95","magneticSusceptibility":"","atomicVolume":"17.86","abundanceCrust":"","boilingPoint":"2011","discoveryYear":"1945","electroNegativity":"1.3","meltingPoint":"1176","elasticModulusBulk":"","boilingPointFootnote":"","ionizationPotentialSecond":"","conductivityThermal":"0.1","discoveryLocation":"United States","descr":"Man made radioactive metal.","elasticModulusRigidity":"","discoverer":"G. T. Seaborg, R. A. James, L. O. Morgan, A. Ghiorso","ionicRadius":"0.982","numberOfProtons":"95","abundanceSea":"","atomicMass":"243.0614","molarVolume":"17.78","ionizationPotentialFirst":"5.993","hardnessScaleVickers":"","enthalpyOfAtomization":"268","density":"12","enthalpyOfFusion":"14.39","opticalRefractiveIndex":"","qualitativeSolubility":"soluble in H₂0; insoluble in ethanol, ethyl ether","name":"Americium","specificHeat":"","valenceElectronPotential":"44","covalentRadius":"","electronWorkFunction":"","valenceElectrons":[{"5f":"7"},{"7s":"2"}],"atomicMassKnownAccurately":false,"period":"7","symbol":"Am","nuclidesAndIsotopes":[{"nuclideSymbol":"","decayEnergy":"","decayModes":"","zp":"","halfLife":"","nn":"","nuclearSpin":"","daughterIsotopes":"","isotopicComposition":"","atomicMass":""}],"elasticModulusYoungs":"","atomicMassFootnote":"a","incompatibilities":"","fillingOrbital":[{"5f":"7"}],"atomicRadius":"","enthalpyOfVaporization":"","heatOfVaporization":"","hardnessScaleBrinell":"","group":"","atomicNumber":95,"relativeGasDensity":"","ionizationPotentialThird":"","crossSection":"180","electroChemicalEquivalent":"3.0229","electronConfiguration":{"3d":"10","5s":"2","4s":"2","5f":"7","6p":"6","3s":"2","4f":"14","5p":"6","2s":"2","4p":"6","1s":"2","3p":"6","2p":"6","5d":"10","7s":"2","4d":"10","6s":"2"},"criticalTemperature":"","heatOfFusion":"14.4"}