{"hardnessScaleMohs":"","opticalReflectivity":"","meltingPointFootnote":"","conductivityElectrical":"","standardCondition":"Gas","crystalStructure":"CubicFace","coefficientOfLinealThermalExpansion":"","flammabilityClass":"","molarHeatCapacity":"20.786","numberOfNeutrons":"22","series":"Noble Gas","vaporPressure":{"pa10":"-226.4","pa100kFootnote":"","pa100Footnote":"s","pa100":"-220.3","pa1Footnote":"","pa1":"","pa1kFootnote":"s","pa1k":"-212.4","pa10kFootnote":"s","pa10Footnote":"s","pa10k":"-201.7","pa100k":"-186.0"},"casRegistryNumber":"7440-37-1","oxidationStates":"0","lineSpectra":[{"intensity":"15","airWavelength":"4013.8570","spectrum":"Ar II"},{"intensity":"6","airWavelength":"4023.6000","spectrum":"Ar III"},{"intensity":"15","airWavelength":"4033.8090","spectrum":"Ar II"},{"intensity":"7","airWavelength":"4035.4600","spectrum":"Ar II"},{"intensity":"50","airWavelength":"4042.8940","spectrum":"Ar II"},{"intensity":"1","airWavelength":"4044.4180","spectrum":"Ar I"},{"intensity":"30","airWavelength":"4052.9210","spectrum":"Ar II"},{"intensity":"70","airWavelength":"4072.0050","spectrum":"Ar II"},{"intensity":"25","airWavelength":"4072.3850","spectrum":"Ar II"},{"intensity":"8","airWavelength":"4076.6280","spectrum":"Ar II"},{"intensity":"12","airWavelength":"4079.5740","spectrum":"Ar II"},{"intensity":"8","airWavelength":"4082.3870","spectrum":"Ar II"},{"intensity":"50","airWavelength":"4103.9120","spectrum":"Ar II"},{"intensity":"100","airWavelength":"4131.7240","spectrum":"Ar II"},{"intensity":"5","airWavelength":"4146.7000","spectrum":"Ar III"},{"intensity":"12","airWavelength":"4156.0860","spectrum":"Ar II"},{"intensity":"11","airWavelength":"4158.5900","spectrum":"Ar I"},{"intensity":"1","airWavelength":"4164.1800","spectrum":"Ar I"},{"intensity":"12","airWavelength":"4179.2970","spectrum":"Ar II"},{"intensity":"1","airWavelength":"4181.8840","spectrum":"Ar I"},{"intensity":"3","airWavelength":"4190.7130","spectrum":"Ar I"},{"intensity":"1","airWavelength":"4191.0290","spectrum":"Ar I"},{"intensity":"6","airWavelength":"4198.3170","spectrum":"Ar I"},{"intensity":"11","airWavelength":"4200.6740","spectrum":"Ar I"},{"intensity":"8","airWavelength":"4218.6650","spectrum":"Ar II"},{"intensity":"8","airWavelength":"4222.6370","spectrum":"Ar II"},{"intensity":"8","airWavelength":"4226.9880","spectrum":"Ar II"},{"intensity":"30","airWavelength":"4228.1580","spectrum":"Ar II"},{"intensity":"30","airWavelength":"4237.2200","spectrum":"Ar II"},{"intensity":"1","airWavelength":"4251.1850","spectrum":"Ar I"},{"intensity":"6","airWavelength":"4259.3620","spectrum":"Ar I"},{"intensity":"3","airWavelength":"4266.2860","spectrum":"Ar I"},{"intensity":"25","airWavelength":"4266.5270","spectrum":"Ar II"},{"intensity":"4","airWavelength":"4272.1690","spectrum":"Ar I"},{"intensity":"200","airWavelength":"4277.5280","spectrum":"Ar II"},{"intensity":"7","airWavelength":"4282.8980","spectrum":"Ar II"},{"intensity":"3","airWavelength":"4300.1010","spectrum":"Ar I"},{"intensity":"8","airWavelength":"4300.6500","spectrum":"Ar II"},{"intensity":"25","airWavelength":"4309.2390","spectrum":"Ar II"},{"intensity":"70","airWavelength":"4331.2000","spectrum":"Ar II"},{"intensity":"15","airWavelength":"4332.0300","spectrum":"Ar II"},{"intensity":"3","airWavelength":"4333.5610","spectrum":"Ar I"},{"intensity":"1","airWavelength":"4335.3380","spectrum":"Ar I"},{"intensity":"1","airWavelength":"4345.1680","spectrum":"Ar I"},{"intensity":"250","airWavelength":"4348.0640","spectrum":"Ar II"},{"intensity":"15","airWavelength":"4352.2050","spectrum":"Ar II"},{"intensity":"8","airWavelength":"4362.0660","spectrum":"Ar II"},{"intensity":"15","airWavelength":"4367.8320","spectrum":"Ar II"},{"intensity":"70","airWavelength":"4370.7530","spectrum":"Ar II"},{"intensity":"25","airWavelength":"4371.3290","spectrum":"Ar II"},{"intensity":"15","airWavelength":"4375.9540","spectrum":"Ar II"},{"intensity":"50","airWavelength":"4379.6670","spectrum":"Ar II"},{"intensity":"15","airWavelength":"4385.0570","spectrum":"Ar II"},{"intensity":"25","airWavelength":"4400.0970","spectrum":"Ar II"},{"intensity":"70","airWavelength":"4400.9860","spectrum":"Ar II"},{"intensity":"130","airWavelength":"4426.0010","spectrum":"Ar II"},{"intensity":"50","airWavelength":"4430.1890","spectrum":"Ar II"},{"intensity":"15","airWavelength":"4430.9960","spectrum":"Ar II"},{"intensity":"15","airWavelength":"4433.8380","spectrum":"Ar II"},{"intensity":"7","airWavelength":"4439.4610","spectrum":"Ar II"},{"intensity":"12","airWavelength":"4448.8790","spectrum":"Ar II"},{"intensity":"30","airWavelength":"4474.7590","spectrum":"Ar II"},{"intensity":"70","airWavelength":"4481.8110","spectrum":"Ar II"},{"intensity":"3","airWavelength":"4510.7330","spectrum":"Ar I"},{"intensity":"1","airWavelength":"4522.3230","spectrum":"Ar I"},{"intensity":"7","airWavelength":"4530.5520","spectrum":"Ar II"},{"intensity":"130","airWavelength":"4545.0520","spectrum":"Ar II"},{"intensity":"7","airWavelength":"4564.4050","spectrum":"Ar II"},{"intensity":"130","airWavelength":"4579.3500","spectrum":"Ar II"},{"intensity":"130","airWavelength":"4589.8980","spectrum":"Ar II"},{"intensity":"200","airWavelength":"4609.5670","spectrum":"Ar II"},{"intensity":"12","airWavelength":"4637.2330","spectrum":"Ar II"},{"intensity":"130","airWavelength":"4657.9010","spectrum":"Ar II"},{"intensity":"7","airWavelength":"4721.5910","spectrum":"Ar II"},{"intensity":"200","airWavelength":"4726.8680","spectrum":"Ar II"},{"intensity":"15","airWavelength":"4732.0530","spectrum":"Ar II"},{"intensity":"100","airWavelength":"4735.9060","spectrum":"Ar II"},{"intensity":"250","airWavelength":"4764.8650","spectrum":"Ar II"},{"intensity":"200","airWavelength":"4806.0200","spectrum":"Ar II"},{"intensity":"50","airWavelength":"4847.8100","spectrum":"Ar II"},{"intensity":"15","airWavelength":"4865.9100","spectrum":"Ar II"},{"intensity":"250","airWavelength":"4879.8640","spectrum":"Ar II"},{"intensity":"25","airWavelength":"4889.0420","spectrum":"Ar II"},{"intensity":"7","airWavelength":"4904.7520","spectrum":"Ar II"},{"intensity":"12","airWavelength":"4933.2090","spectrum":"Ar II"},{"intensity":"70","airWavelength":"4965.0800","spectrum":"Ar II"},{"intensity":"15","airWavelength":"5009.3340","spectrum":"Ar II"},{"intensity":"25","airWavelength":"5017.1630","spectrum":"Ar II"},{"intensity":"25","airWavelength":"5062.0370","spectrum":"Ar II"},{"intensity":"7","airWavelength":"5090.4950","spectrum":"Ar II"},{"intensity":"30","airWavelength":"5141.7830","spectrum":"Ar II"},{"intensity":"25","airWavelength":"5145.3080","spectrum":"Ar II"},{"intensity":"8","airWavelength":"5165.7730","spectrum":"Ar II"},{"intensity":"1","airWavelength":"5187.7460","spectrum":"Ar I"},{"intensity":"7","airWavelength":"5216.8140","spectrum":"Ar II"},{"intensity":"1","airWavelength":"5495.8740","spectrum":"Ar I"},{"intensity":"1","airWavelength":"5558.7020","spectrum":"Ar I"},{"intensity":"1","airWavelength":"5606.7330","spectrum":"Ar I"},{"intensity":"1","airWavelength":"5650.7040","spectrum":"Ar I"},{"intensity":"1","airWavelength":"5888.5840","spectrum":"Ar I"},{"intensity":"1","airWavelength":"5912.0850","spectrum":"Ar I"},{"intensity":"2","airWavelength":"6032.1270","spectrum":"Ar I"},{"intensity":"1","airWavelength":"6043.2230","spectrum":"Ar I"},{"intensity":"1","airWavelength":"6059.3720","spectrum":"Ar I"},{"intensity":"30","airWavelength":"6114.9230","spectrum":"Ar II"},{"intensity":"50","airWavelength":"6172.2780","spectrum":"Ar II"},{"intensity":"8","airWavelength":"6243.1200","spectrum":"Ar II"},{"intensity":"1","airWavelength":"6384.7170","spectrum":"Ar I"},{"intensity":"2","airWavelength":"6416.3070","spectrum":"Ar I"},{"intensity":"8","airWavelength":"6483.0820","spectrum":"Ar II"},{"intensity":"8","airWavelength":"6638.2210","spectrum":"Ar II"},{"intensity":"7","airWavelength":"6639.7400","spectrum":"Ar II"},{"intensity":"15","airWavelength":"6643.6980","spectrum":"Ar II"},{"intensity":"8","airWavelength":"6666.3590","spectrum":"Ar II"},{"intensity":"3","airWavelength":"6677.2820","spectrum":"Ar I"},{"intensity":"12","airWavelength":"6684.2930","spectrum":"Ar II"},{"intensity":"4","airWavelength":"6752.8340","spectrum":"Ar I"},{"intensity":"7","airWavelength":"6861.2690","spectrum":"Ar II"},{"intensity":"4","airWavelength":"6871.2890","spectrum":"Ar I"},{"intensity":"1","airWavelength":"6937.6640","spectrum":"Ar I"},{"intensity":"300","airWavelength":"6965.4310","spectrum":"Ar I"}],"numberOfElectrons":"18","magneticSusceptibility":"-19.32","atomicVolume":"28.5","abundanceCrust":"3.5","boilingPoint":"-185.85","discoveryYear":"1894","electroNegativity":"","meltingPoint":"-189.35","elasticModulusBulk":"","boilingPointFootnote":"","ionizationPotentialSecond":"27.629","conductivityThermal":"0.0001772","discoveryLocation":"Scotland","descr":"Colorless, odorless, tasteless noble gas.","elasticModulusRigidity":"","discoverer":"Sir William Ramsey, Baron Rayleigh","ionicRadius":"","numberOfProtons":"18","abundanceSea":"4.5x10⁻¹","atomicMass":"39.948","ionizationPotentialFirst":"15.759","molarVolume":"24.2","hardnessScaleVickers":"","enthalpyOfAtomization":"","density":"1.633","enthalpyOfFusion":"1.18","opticalRefractiveIndex":"1.000281","qualitativeSolubility":"soluble in H₂0","name":"Argon","specificHeat":"0.520","atomicMassUncertainty":1,"valenceElectronPotential":"","covalentRadius":"0.98","electronWorkFunction":"","valenceElectrons":[{"3s":"2"},{"3p":"6"}],"atomicMassKnownAccurately":true,"period":"3","symbol":"Ar","nuclidesAndIsotopes":[{"nuclideSymbol":"Ar30","decayEnergy":"","decayModes":"","zp":"","halfLife":"<20ns","nn":"12","nuclearSpin":"0+","daughterIsotopes":"","isotopicComposition":"Syn","atomicMass":"30.022"},{"nuclideSymbol":"Ar31","decayEnergy":"","decayModes":"","zp":"","halfLife":"15.1ms","nn":"13","nuclearSpin":"","daughterIsotopes":"","isotopicComposition":"Syn","atomicMass":"31.012"},{"nuclideSymbol":"Ar32","decayEnergy":"11.150","decayModes":"ξ","zp":"","halfLife":"98ms","nn":"14","nuclearSpin":"0+","daughterIsotopes":"Cl32","isotopicComposition":"Syn","atomicMass":"31.9977"},{"nuclideSymbol":"","decayEnergy":"9.580","decayModes":"ξ + P","zp":"","halfLife":"98ms","nn":"","nuclearSpin":"","daughterIsotopes":"S31","isotopicComposition":"","atomicMass":""},{"nuclideSymbol":"Ar33","decayEnergy":"9.350","decayModes":"ξ + P","zp":"38.7","halfLife":"173ms","nn":"15","nuclearSpin":"1\/2+","daughterIsotopes":"S32","isotopicComposition":"Syn","atomicMass":"32.9899"},{"nuclideSymbol":"","decayEnergy":"11.620","decayModes":"ξ","zp":"","halfLife":"173ms","nn":"","nuclearSpin":"","daughterIsotopes":"Cl33","isotopicComposition":"","atomicMass":""},{"nuclideSymbol":"Ar34","decayEnergy":"6.061","decayModes":"ξ","zp":"","halfLife":"844.5ms","nn":"16","nuclearSpin":"0+","daughterIsotopes":"Cl34","isotopicComposition":"Syn","atomicMass":"33.9803"},{"nuclideSymbol":"Ar35","decayEnergy":"5.965","decayModes":"ξ","zp":"","halfLife":"1.775s","nn":"17","nuclearSpin":"3\/2+","daughterIsotopes":"Cl35","isotopicComposition":"Syn","atomicMass":"34.9753"},{"nuclideSymbol":"Ar36","decayEnergy":"","decayModes":"","zp":"","halfLife":"Stable","nn":"18","nuclearSpin":"0+","daughterIsotopes":"","isotopicComposition":"0.337","atomicMass":"35.9675"},{"nuclideSymbol":"Ar37","decayEnergy":"0.813","decayModes":"ξ","zp":"","halfLife":"35.04d","nn":"19","nuclearSpin":"3\/2+","daughterIsotopes":"Cl37","isotopicComposition":"Syn","atomicMass":"36.9668"},{"nuclideSymbol":"Ar38","decayEnergy":"","decayModes":"","zp":"","halfLife":"Stable","nn":"20","nuclearSpin":"0+","daughterIsotopes":"","isotopicComposition":"0.063","atomicMass":"37.9627"},{"nuclideSymbol":"Ar39","decayEnergy":"0.565","decayModes":"β-","zp":"","halfLife":"269y","nn":"21","nuclearSpin":"7\/2-","daughterIsotopes":"K39","isotopicComposition":"Syn","atomicMass":"38.9643"},{"nuclideSymbol":"Ar40","decayEnergy":"","decayModes":"","zp":"","halfLife":"Stable","nn":"22","nuclearSpin":"0+","daughterIsotopes":"","isotopicComposition":"99.6","atomicMass":"39.9624"},{"nuclideSymbol":"Ar41","decayEnergy":"2.492","decayModes":"β-","zp":"","halfLife":"109.34m","nn":"23","nuclearSpin":"7\/2-","daughterIsotopes":"K41","isotopicComposition":"Syn","atomicMass":"40.9645"},{"nuclideSymbol":"Ar42","decayEnergy":"0.600","decayModes":"β-","zp":"","halfLife":"32.9y","nn":"24","nuclearSpin":"0+","daughterIsotopes":"K42","isotopicComposition":"Syn","atomicMass":"41.963"},{"nuclideSymbol":"Ar43","decayEnergy":"4.620","decayModes":"β-","zp":"","halfLife":"5.37m","nn":"25","nuclearSpin":"5\/2-","daughterIsotopes":"K43","isotopicComposition":"Syn","atomicMass":"42.9657"},{"nuclideSymbol":"Ar44","decayEnergy":"3.550","decayModes":"β-","zp":"","halfLife":"11.87m","nn":"26","nuclearSpin":"0+","daughterIsotopes":"K44","isotopicComposition":"Syn","atomicMass":"43.9654"},{"nuclideSymbol":"Ar45","decayEnergy":"6.890","decayModes":"β-","zp":"","halfLife":"21.48s","nn":"27","nuclearSpin":"","daughterIsotopes":"K45","isotopicComposition":"Syn","atomicMass":"44.9681"},{"nuclideSymbol":"Ar46","decayEnergy":"5.700","decayModes":"β-","zp":"","halfLife":"8.4s","nn":"28","nuclearSpin":"0+","daughterIsotopes":"K46","isotopicComposition":"Syn","atomicMass":"45.9681"},{"nuclideSymbol":"Ar47","decayEnergy":"1.440","decayModes":"β- + N","zp":"<1","halfLife":"~700ms","nn":"29","nuclearSpin":"","daughterIsotopes":"K46","isotopicComposition":"Syn","atomicMass":"46.972"},{"nuclideSymbol":"","decayEnergy":"9.790","decayModes":"β-","zp":"","halfLife":"~700ms","nn":"","nuclearSpin":"","daughterIsotopes":"K47","isotopicComposition":"","atomicMass":""},{"nuclideSymbol":"Ar48","decayEnergy":"","decayModes":"","zp":"","halfLife":"","nn":"30","nuclearSpin":"0+","daughterIsotopes":"","isotopicComposition":"Syn","atomicMass":"47.975"},{"nuclideSymbol":"Ar49","decayEnergy":"","decayModes":"","zp":"","halfLife":"=>170ns","nn":"31","nuclearSpin":"","daughterIsotopes":"","isotopicComposition":"Syn","atomicMass":"48.982"},{"nuclideSymbol":"Ar50","decayEnergy":"","decayModes":"","zp":"","halfLife":"=>170ns","nn":"32","nuclearSpin":"0+","daughterIsotopes":"","isotopicComposition":"Syn","atomicMass":"49.986"},{"nuclideSymbol":"Ar51","decayEnergy":"","decayModes":"","zp":"","halfLife":">200ns","nn":"33","nuclearSpin":"","daughterIsotopes":"","isotopicComposition":"Syn","atomicMass":"50.993"},{"nuclideSymbol":"Ar52","decayEnergy":"","decayModes":"","zp":"","halfLife":"","nn":"34","nuclearSpin":"0+","daughterIsotopes":"","isotopicComposition":"Syn","atomicMass":"51.998"}],"elasticModulusYoungs":"","atomicMassFootnote":"g r","incompatibilities":"","fillingOrbital":[{"3p":"6"}],"atomicRadius":"0.88","enthalpyOfVaporization":"6.43","heatOfVaporization":"6.447","hardnessScaleBrinell":"","group":"18","atomicNumber":18,"relativeGasDensity":"","ionizationPotentialThird":"40.74","crossSection":"0.66","electroChemicalEquivalent":"","electronConfiguration":{"3p":"6","2p":"6","3s":"2","2s":"2","1s":"2"},"criticalTemperature":"-122.28","heatOfFusion":"1.188"}