{"hardnessScaleMohs":"3.5","opticalReflectivity":"","meltingPointFootnote":"triple point @ 3.70 MPa (gray)","conductivityElectrical":"0.0345","standardCondition":"Solid","crystalStructure":"Rhombohedral","coefficientOfLinealThermalExpansion":"0.00000602","flammabilityClass":"","molarHeatCapacity":"24.64","numberOfNeutrons":"42","series":"Non Metal","vaporPressure":{"pa10":"323","pa100kFootnote":"s","pa100Footnote":"s","pa100":"373","pa1Footnote":"s","pa1":"280","pa1kFootnote":"s","pa1k":"433","pa10kFootnote":"s","pa10Footnote":"s","pa10k":"508","pa100k":"601"},"casRegistryNumber":"7440-38-2","oxidationStates":"±3, 5","lineSpectra":[{"intensity":"700","airWavelength":"4190.0820","spectrum":"As II"},{"intensity":"700","airWavelength":"4458.4690","spectrum":"As II"},{"intensity":"700","airWavelength":"4466.3480","spectrum":"As II"},{"intensity":"800","airWavelength":"4494.2300","spectrum":"As II"},{"intensity":"800","airWavelength":"4507.6590","spectrum":"As II"},{"intensity":"700","airWavelength":"4543.4830","spectrum":"As II"},{"intensity":"500","airWavelength":"6170.2700","spectrum":"As II"}],"numberOfElectrons":"33","magneticSusceptibility":"-5.6","atomicVolume":"13.1","abundanceCrust":"1.8","boilingPoint":"603","discoveryYear":"1250","electroNegativity":"2.18","meltingPoint":"817","elasticModulusBulk":"22","boilingPointFootnote":"sublimation point (gray)","ionizationPotentialSecond":"18.633","conductivityThermal":"0.502","discoveryLocation":"Germany","descr":"Gray brittle non-metal flakes","elasticModulusRigidity":"","discoverer":"Alberts Magna","ionicRadius":"0.58","numberOfProtons":"33","abundanceSea":"3.7x10⁻³","atomicMass":"74.92160","ionizationPotentialFirst":"9.81","molarVolume":"13.08","hardnessScaleVickers":"","enthalpyOfAtomization":"301.3","density":"5.72","enthalpyOfFusion":"24.44","opticalRefractiveIndex":"1.001552","qualitativeSolubility":"insoluble in H₂0","name":"Arsenic","specificHeat":"0.329","atomicMassUncertainty":2,"valenceElectronPotential":"74","covalentRadius":"1.2","electronWorkFunction":"3.75","valenceElectrons":[{"4s":"2"},{"4p":"3"}],"atomicMassKnownAccurately":true,"period":"4","symbol":"As","nuclidesAndIsotopes":[{"nuclideSymbol":"As60","decayEnergy":"","decayModes":"","zp":"","halfLife":"","nn":"27","nuclearSpin":"","daughterIsotopes":"","isotopicComposition":"Syn","atomicMass":"59.993"},{"nuclideSymbol":"As61","decayEnergy":"","decayModes":"","zp":"","halfLife":"","nn":"28","nuclearSpin":"","daughterIsotopes":"","isotopicComposition":"Syn","atomicMass":"60.981"},{"nuclideSymbol":"As62","decayEnergy":"","decayModes":"","zp":"","halfLife":"","nn":"29","nuclearSpin":"","daughterIsotopes":"","isotopicComposition":"Syn","atomicMass":"61.973"},{"nuclideSymbol":"As63","decayEnergy":"","decayModes":"","zp":"","halfLife":"","nn":"30","nuclearSpin":"","daughterIsotopes":"","isotopicComposition":"Syn","atomicMass":"62.964"},{"nuclideSymbol":"As64","decayEnergy":"","decayModes":"","zp":"","halfLife":"","nn":"31","nuclearSpin":"","daughterIsotopes":"","isotopicComposition":"Syn","atomicMass":"63.958"},{"nuclideSymbol":"As65","decayEnergy":"9.400","decayModes":"ξ","zp":"","halfLife":"0.19s","nn":"32","nuclearSpin":"","daughterIsotopes":"Ge65","isotopicComposition":"Syn","atomicMass":"64.949"},{"nuclideSymbol":"As66","decayEnergy":"9.800","decayModes":"ξ","zp":"","halfLife":"95.77ms","nn":"33","nuclearSpin":"","daughterIsotopes":"Ge66","isotopicComposition":"Syn","atomicMass":"65.944"},{"nuclideSymbol":"As67","decayEnergy":"6.010","decayModes":"ξ","zp":"","halfLife":"42.5s","nn":"34","nuclearSpin":"5\/2-","daughterIsotopes":"Ge67","isotopicComposition":"Syn","atomicMass":"66.939"},{"nuclideSymbol":"As68","decayEnergy":"8.100","decayModes":"ξ","zp":"","halfLife":"151.6s","nn":"35","nuclearSpin":"3+","daughterIsotopes":"Ge68","isotopicComposition":"Syn","atomicMass":"67.937"},{"nuclideSymbol":"As69","decayEnergy":"4.010","decayModes":"ξ","zp":"","halfLife":"15.2m","nn":"36","nuclearSpin":"5\/2-","daughterIsotopes":"Ge69","isotopicComposition":"Syn","atomicMass":"68.9323"},{"nuclideSymbol":"As70","decayEnergy":"6.220","decayModes":"ξ","zp":"","halfLife":"52.6m","nn":"37","nuclearSpin":"4+","daughterIsotopes":"Ge70","isotopicComposition":"Syn","atomicMass":"69.9309"},{"nuclideSymbol":"As71","decayEnergy":"2.013","decayModes":"ξ","zp":"","halfLife":"65.28h","nn":"38","nuclearSpin":"5\/2-","daughterIsotopes":"Ge71","isotopicComposition":"Syn","atomicMass":"70.9271"},{"nuclideSymbol":"As72","decayEnergy":"4.356","decayModes":"ξ","zp":"","halfLife":"26h","nn":"39","nuclearSpin":"2-","daughterIsotopes":"Ge72","isotopicComposition":"Syn","atomicMass":"71.9268"},{"nuclideSymbol":"As73","decayEnergy":"0.341","decayModes":"ξ","zp":"","halfLife":"80.3d","nn":"40","nuclearSpin":"3\/2-","daughterIsotopes":"Ge73","isotopicComposition":"Syn","atomicMass":"72.9238"},{"nuclideSymbol":"As74","decayEnergy":"2.562","decayModes":"ξ","zp":"66","halfLife":"17.77d","nn":"41","nuclearSpin":"2-","daughterIsotopes":"Ge74","isotopicComposition":"Syn","atomicMass":"73.9239"},{"nuclideSymbol":"","decayEnergy":"1.353","decayModes":"β-","zp":"34","halfLife":"17.77d","nn":"","nuclearSpin":"","daughterIsotopes":"Se74","isotopicComposition":"","atomicMass":""},{"nuclideSymbol":"As75","decayEnergy":"","decayModes":"","zp":"","halfLife":"Stable","nn":"42","nuclearSpin":"3\/2-","daughterIsotopes":"","isotopicComposition":"100","atomicMass":"74.9216"},{"nuclideSymbol":"MS","decayEnergy":"","decayModes":"","zp":"","halfLife":"16.79ms","nn":"","nuclearSpin":"9\/2+","daughterIsotopes":"","isotopicComposition":"Syn","atomicMass":"0.303MeV"},{"nuclideSymbol":"As76","decayEnergy":"2.962","decayModes":"β-","zp":"","halfLife":"1.0778d","nn":"43","nuclearSpin":"2-","daughterIsotopes":"Se76","isotopicComposition":"Syn","atomicMass":"75.9224"},{"nuclideSymbol":"As77","decayEnergy":"0.683","decayModes":"β-","zp":"","halfLife":"38.83h","nn":"44","nuclearSpin":"3\/2-","daughterIsotopes":"Se77","isotopicComposition":"Syn","atomicMass":"76.9207"},{"nuclideSymbol":"MS","decayEnergy":"0.475","decayModes":"IT","zp":"","halfLife":"114us","nn":"","nuclearSpin":"9\/2+","daughterIsotopes":"As77","isotopicComposition":"Syn","atomicMass":"0.475MeV"},{"nuclideSymbol":"As78","decayEnergy":"4.210","decayModes":"β-","zp":"","halfLife":"90.7m","nn":"45","nuclearSpin":"2-","daughterIsotopes":"Se78","isotopicComposition":"Syn","atomicMass":"77.9218"},{"nuclideSymbol":"As79","decayEnergy":"2.281","decayModes":"β-","zp":"","halfLife":"9.01m","nn":"46","nuclearSpin":"3\/2-","daughterIsotopes":"Se79","isotopicComposition":"Syn","atomicMass":"78.921"},{"nuclideSymbol":"As80","decayEnergy":"5.641","decayModes":"β-","zp":"","halfLife":"15.2s","nn":"47","nuclearSpin":"1+","daughterIsotopes":"Se80","isotopicComposition":"Syn","atomicMass":"79.9226"},{"nuclideSymbol":"As81","decayEnergy":"3.856","decayModes":"β-","zp":"","halfLife":"33.3s","nn":"48","nuclearSpin":"3\/2-","daughterIsotopes":"Se81","isotopicComposition":"Syn","atomicMass":"80.9221"},{"nuclideSymbol":"As82","decayEnergy":"7.270","decayModes":"β-","zp":"","halfLife":"19.1s","nn":"49","nuclearSpin":"1+","daughterIsotopes":"Se82","isotopicComposition":"Syn","atomicMass":"81.925"},{"nuclideSymbol":"MS","decayEnergy":"7.270","decayModes":"β-","zp":"","halfLife":"13.6s","nn":"","nuclearSpin":"5-","daughterIsotopes":"Se82","isotopicComposition":"Syn","atomicMass":"0.000MeV"},{"nuclideSymbol":"As83","decayEnergy":"5.460","decayModes":"β-","zp":"","halfLife":"13.4s","nn":"50","nuclearSpin":"2-, 3\/2-","daughterIsotopes":"Se83","isotopicComposition":"Syn","atomicMass":"82.925"},{"nuclideSymbol":"As84","decayEnergy":"1.200","decayModes":"β- + N","zp":"0.28","halfLife":"4.5s","nn":"51","nuclearSpin":"3-","daughterIsotopes":"Se83","isotopicComposition":"Syn","atomicMass":"83.929"},{"nuclideSymbol":"","decayEnergy":"9.900","decayModes":"β-","zp":"","halfLife":"4.5s","nn":"","nuclearSpin":"","daughterIsotopes":"Se84","isotopicComposition":"","atomicMass":""},{"nuclideSymbol":"As85","decayEnergy":"4.400","decayModes":"β- + N","zp":"59.4","halfLife":"2.021s","nn":"52","nuclearSpin":"3\/2-","daughterIsotopes":"Se84","isotopicComposition":"Syn","atomicMass":"84.932"},{"nuclideSymbol":"","decayEnergy":"8.900","decayModes":"β-","zp":"","halfLife":"2.021s","nn":"","nuclearSpin":"","daughterIsotopes":"Se85","isotopicComposition":"","atomicMass":""},{"nuclideSymbol":"As86","decayEnergy":"5.000","decayModes":"β- + N","zp":"33","halfLife":"0.945s","nn":"53","nuclearSpin":"","daughterIsotopes":"Se85","isotopicComposition":"Syn","atomicMass":"85.936"},{"nuclideSymbol":"","decayEnergy":"11.100","decayModes":"β-","zp":"","halfLife":"0.945s","nn":"","nuclearSpin":"","daughterIsotopes":"Se86","isotopicComposition":"","atomicMass":""},{"nuclideSymbol":"As87","decayEnergy":"6.200","decayModes":"β- + N","zp":"15.4","halfLife":"0.48s","nn":"54","nuclearSpin":"3\/2-","daughterIsotopes":"Se86","isotopicComposition":"Syn","atomicMass":"86.94"},{"nuclideSymbol":"","decayEnergy":"10.300","decayModes":"β-","zp":"","halfLife":"0.48s","nn":"","nuclearSpin":"","daughterIsotopes":"Se87","isotopicComposition":"","atomicMass":""},{"nuclideSymbol":"As88","decayEnergy":"","decayModes":"","zp":"","halfLife":">150ns","nn":"55","nuclearSpin":"","daughterIsotopes":"","isotopicComposition":"Syn","atomicMass":"87.945"},{"nuclideSymbol":"As89","decayEnergy":"","decayModes":"","zp":"","halfLife":">150ns","nn":"56","nuclearSpin":"","daughterIsotopes":"","isotopicComposition":"Syn","atomicMass":"88.949"}],"elasticModulusYoungs":"8","atomicMassFootnote":"","incompatibilities":"halogenated compounds, rhubidium, carbide","fillingOrbital":[{"4p":"3"}],"atomicRadius":"1.33","enthalpyOfVaporization":"34.76","heatOfVaporization":"34.76","hardnessScaleBrinell":"1440","group":"15","atomicNumber":33,"relativeGasDensity":"","ionizationPotentialThird":"28.351","crossSection":"4.3","electroChemicalEquivalent":"0.93177","electronConfiguration":{"4p":"3","3p":"6","4s":"2","2p":"6","3s":"2","2s":"2","3d":"10","1s":"2"},"criticalTemperature":"1400","heatOfFusion":"27.7"}