{"hardnessScaleMohs":"","opticalReflectivity":"","meltingPointFootnote":"","conductivityElectrical":"","standardCondition":"Solid","crystalStructure":"Rhombohedral","coefficientOfLinealThermalExpansion":"","flammabilityClass":"","molarHeatCapacity":"","numberOfNeutrons":"125","series":"Halogen","vaporPressure":{"pa100k":"334","pa100kFootnote":"","pa100Footnote":"s","pa100":"156","pa1Footnote":"s","pa1":"88","pa1kFootnote":"s","pa1k":"202","pa10kFootnote":"s","pa10Footnote":"s","pa10k":"258","pa10":"119"},"casRegistryNumber":"7440-68-8","oxidationStates":"±1, 3, 5, 7","lineSpectra":[{"intensity":"0","airWavelength":"0","spectrum":"TBD"}],"numberOfElectrons":"85","magneticSusceptibility":"","atomicVolume":"","abundanceCrust":"","boilingPoint":"337","discoveryYear":"1940","electroNegativity":"2.2","meltingPoint":"302","elasticModulusBulk":"","boilingPointFootnote":"","ionizationPotentialSecond":"","conductivityThermal":"0.017","discoveryLocation":"United States, University of California","descr":"Radioactive member of the halogen group.","elasticModulusRigidity":"","discoverer":"D.R.Corson, K.R.MacKenzie, E.Segré","ionicRadius":"","numberOfProtons":"85","abundanceSea":"","atomicMass":"209,9871","molarVolume":"","ionizationPotentialFirst":"9.65","hardnessScaleVickers":"","enthalpyOfAtomization":"92","density":"","enthalpyOfFusion":"","opticalRefractiveIndex":"","qualitativeSolubility":"soluble in HNO₃, organic solvents","name":"Astatine","specificHeat":"","valenceElectronPotential":"","covalentRadius":"1.45","electronWorkFunction":"","valenceElectrons":[{"6s":"2"},{"6p":"5"}],"atomicMassKnownAccurately":false,"period":"6","symbol":"At","nuclidesAndIsotopes":[{"nuclideSymbol":"","decayEnergy":"","decayModes":"","zp":"","halfLife":"","nn":"","nuclearSpin":"","daughterIsotopes":"","isotopicComposition":"","atomicMass":""}],"elasticModulusYoungs":"","atomicMassFootnote":"a","incompatibilities":"","fillingOrbital":[{"6p":"5"}],"atomicRadius":"1.43","enthalpyOfVaporization":"","heatOfVaporization":"","hardnessScaleBrinell":"","group":"17","atomicNumber":85,"relativeGasDensity":"","ionizationPotentialThird":"","crossSection":"","electroChemicalEquivalent":"7.8346","electronConfiguration":{"3d":"10","5s":"2","4s":"2","6p":"5","3s":"2","4f":"14","5p":"6","2s":"2","4p":"6","1s":"2","3p":"6","2p":"6","5d":"10","4d":"10","6s":"2"},"criticalTemperature":"","heatOfFusion":"114"}