{"hardnessScaleMohs":"2.5","opticalReflectivity":"95","meltingPointFootnote":"","conductivityElectrical":"0.452","standardCondition":"Solid","crystalStructure":"CubicFace","coefficientOfLinealThermalExpansion":"0.0000142","flammabilityClass":"","molarHeatCapacity":"24.418","numberOfNeutrons":"118","series":"Transition Metal","vaporPressure":{"pa100k":"2805","pa100kFootnote":"","pa100Footnote":"","pa100":"1748","pa1Footnote":"","pa1":"1373","pa1kFootnote":"","pa1k":"2008","pa10kFootnote":"","pa10Footnote":"","pa10k":"2347","pa10":"1541"},"casRegistryNumber":"7440-57-5","oxidationStates":"3, 1","lineSpectra":[{"intensity":"0","airWavelength":"0","spectrum":"TBD"}],"numberOfElectrons":"79","magneticSusceptibility":"-28","atomicVolume":"10.2","abundanceCrust":"4x10⁻³","boilingPoint":"2856","discoveryYear":"Known to the ancients","electroNegativity":"2.54","meltingPoint":"1064.18","elasticModulusBulk":"220","boilingPointFootnote":"","ionizationPotentialSecond":"20.521","conductivityThermal":"3.17","discoveryLocation":"?","descr":"Soft bright yellow transition metal.","elasticModulusRigidity":"27","discoverer":"Known to the ancients","ionicRadius":"0.85","numberOfProtons":"79","abundanceSea":"4x10⁻⁶","atomicMass":"196.96655","molarVolume":"10.2","ionizationPotentialFirst":"9.225","hardnessScaleVickers":"216","enthalpyOfAtomization":"364","density":"19.3","enthalpyOfFusion":"12.55","opticalRefractiveIndex":"","qualitativeSolubility":"soluble in aqua regia","name":"Gold","specificHeat":"0.129","atomicMassUncertainty":2,"valenceElectronPotential":"51","covalentRadius":"1.34","electronWorkFunction":"5.1","valenceElectrons":[{"5d":"10"},{"6s":"1"}],"atomicMassKnownAccurately":true,"period":"6","symbol":"Au","nuclidesAndIsotopes":[{"nuclideSymbol":"","decayEnergy":"","decayModes":"","zp":"","halfLife":"","nn":"","nuclearSpin":"","daughterIsotopes":"","isotopicComposition":"","atomicMass":""}],"elasticModulusYoungs":"78","atomicMassFootnote":"","incompatibilities":"","fillingOrbital":[{"5d":"10"}],"atomicRadius":"1.79","enthalpyOfVaporization":"324.4","heatOfVaporization":"334.4","hardnessScaleBrinell":"2450","group":"11","atomicNumber":79,"relativeGasDensity":"","ionizationPotentialThird":"","crossSection":"98.8","electroChemicalEquivalent":"2.4496","electronConfiguration":{"3d":"10","5s":"2","4s":"2","3s":"2","4f":"14","5p":"6","2s":"2","4p":"6","1s":"2","3p":"6","2p":"6","5d":"10","4d":"10","6s":"1"},"criticalTemperature":"","heatOfFusion":"12.55"}