{"hardnessScaleMohs":"9.3","opticalReflectivity":"","meltingPointFootnote":"","conductivityElectrical":"1.0E-12 10E6","standardCondition":"Solid","crystalStructure":"Rhombohedral","coefficientOfLinealThermalExpansion":"0.0000083","flammabilityClass":"","molarHeatCapacity":"11.087","numberOfNeutrons":"6","series":"Non Metal","vaporPressure":{"pa10":"2289","pa100kFootnote":"","pa100Footnote":"","pa100":"2549","pa1Footnote":"","pa1":"2075","pa1kFootnote":"","pa1k":"2868","pa10kFootnote":"","pa10Footnote":"","pa10k":"3272","pa100k":"3799"},"casRegistryNumber":"7440-42-8","oxidationStates":"3","lineSpectra":[{"intensity":"300","airWavelength":"4121.9330","spectrum":"B II"},{"intensity":"110","airWavelength":"4194.7920","spectrum":"B II"},{"intensity":"40","airWavelength":"4242.9800","spectrum":"B III"},{"intensity":"70","airWavelength":"4243.6100","spectrum":"B III"},{"intensity":"110","airWavelength":"4472.1010","spectrum":"B II"},{"intensity":"110","airWavelength":"4472.8510","spectrum":"B II"},{"intensity":"2200","airWavelength":"4487.0500","spectrum":"B III"},{"intensity":"360","airWavelength":"4497.7300","spectrum":"B III"},{"intensity":"110","airWavelength":"4940.3760","spectrum":"B II"},{"intensity":"110","airWavelength":"6080.4400","spectrum":"B II"}],"numberOfElectrons":"5","magneticSusceptibility":"-6.7","atomicVolume":"4.6","abundanceCrust":"1.0x10¹","boilingPoint":"4000","discoveryYear":"1808","electroNegativity":"2.04","meltingPoint":"2075","elasticModulusBulk":"320","boilingPointFootnote":"","ionizationPotentialSecond":"25.154","conductivityThermal":"0.274","discoveryLocation":"France","descr":"Yellow-brown non-metallic crystal.","elasticModulusRigidity":"","discoverer":"H. Day, J.L. Gay-Lussac, L.J. Thenard","ionicRadius":"0.23","numberOfProtons":"5","abundanceSea":"4.44","atomicMass":"10.811","ionizationPotentialFirst":"8.298","molarVolume":"4.68","hardnessScaleVickers":"490","enthalpyOfAtomization":"573.2","density":"2.34","enthalpyOfFusion":"22.18","opticalRefractiveIndex":"","qualitativeSolubility":"insoluble in H₂0","name":"Boron","specificHeat":"1.026","atomicMassUncertainty":7,"valenceElectronPotential":"190","covalentRadius":"0.82","electronWorkFunction":"4.45","valenceElectrons":[{"2p":"1","2s":"2"}],"atomicMassKnownAccurately":true,"period":"2","symbol":"B","nuclidesAndIsotopes":[{"nuclideSymbol":"B7","decayEnergy":"2.200","decayModes":"P","zp":"","halfLife":"1.4MeV","nn":"2","nuclearSpin":"3\/2-","daughterIsotopes":"Be6","isotopicComposition":"Syn","atomicMass":"7.0299"},{"nuclideSymbol":"B8","decayEnergy":"17.979","decayModes":"ξ","zp":"","halfLife":"770ms","nn":"3","nuclearSpin":"2+","daughterIsotopes":"Be8","isotopicComposition":"Syn","atomicMass":"8.0246"},{"nuclideSymbol":"","decayEnergy":"18.071","decayModes":"ξ + α","zp":"","halfLife":"770ms","nn":"","nuclearSpin":"","daughterIsotopes":"He4","isotopicComposition":"","atomicMass":""},{"nuclideSymbol":"B9","decayEnergy":"0.277","decayModes":"α","zp":"","halfLife":"0.54keV","nn":"4","nuclearSpin":"3\/2-","daughterIsotopes":"H1","isotopicComposition":"Syn","atomicMass":"9.0133"},{"nuclideSymbol":"","decayEnergy":"0.185","decayModes":"P","zp":"","halfLife":"0.54keV","nn":"","nuclearSpin":"","daughterIsotopes":"Be8","isotopicComposition":"","atomicMass":""},{"nuclideSymbol":"B10","decayEnergy":"","decayModes":"","zp":"","halfLife":"Stable","nn":"5","nuclearSpin":"3+","daughterIsotopes":"","isotopicComposition":"19.9","atomicMass":"10.0129"},{"nuclideSymbol":"B11","decayEnergy":"","decayModes":"","zp":"","halfLife":"Stable","nn":"6","nuclearSpin":"3\/2-","daughterIsotopes":"","isotopicComposition":"80.1","atomicMass":"11.0093"},{"nuclideSymbol":"B12","decayEnergy":"13.369","decayModes":"β-","zp":"","halfLife":"20.2ms","nn":"7","nuclearSpin":"1+","daughterIsotopes":"C12","isotopicComposition":"Syn","atomicMass":"12.0144"},{"nuclideSymbol":"B13","decayEnergy":"13.437","decayModes":"β-","zp":"","halfLife":"17.36ms","nn":"8","nuclearSpin":"3\/2-","daughterIsotopes":"C13","isotopicComposition":"Syn","atomicMass":"13.0178"},{"nuclideSymbol":"B14","decayEnergy":"20.644","decayModes":"β-","zp":"","halfLife":"13.8ms","nn":"9","nuclearSpin":"2-","daughterIsotopes":"C14","isotopicComposition":"Syn","atomicMass":"14.0254"},{"nuclideSymbol":"B15","decayEnergy":"19.094","decayModes":"β-","zp":"","halfLife":"10.5ms","nn":"10","nuclearSpin":"","daughterIsotopes":"C15","isotopicComposition":"Syn","atomicMass":"15.0311"},{"nuclideSymbol":"B16","decayEnergy":"0.100","decayModes":"N","zp":"","halfLife":"< 200ps","nn":"11","nuclearSpin":"0-","daughterIsotopes":"B15","isotopicComposition":"Syn","atomicMass":"16.0398"},{"nuclideSymbol":"B17","decayEnergy":"22.680","decayModes":"β-","zp":"","halfLife":"5.08ms","nn":"12","nuclearSpin":"3\/2-","daughterIsotopes":"C17","isotopicComposition":"Syn","atomicMass":"17.047"},{"nuclideSymbol":"B18","decayEnergy":"","decayModes":"","zp":"","halfLife":"","nn":"13","nuclearSpin":"","daughterIsotopes":"","isotopicComposition":"Syn","atomicMass":"18.056"},{"nuclideSymbol":"B19","decayEnergy":"","decayModes":"","zp":"","halfLife":"","nn":"14","nuclearSpin":"","daughterIsotopes":"","isotopicComposition":"Syn","atomicMass":"19.064"}],"elasticModulusYoungs":"","atomicMassFootnote":"g m r","incompatibilities":"","fillingOrbital":[{"2p":"1"}],"atomicRadius":"1.17","enthalpyOfVaporization":"480","heatOfVaporization":"489.7","hardnessScaleBrinell":"","group":"13","atomicNumber":5,"relativeGasDensity":"","ionizationPotentialThird":"37.93","crossSection":"759","electroChemicalEquivalent":"0.1344","electronConfiguration":{"2p":"1","2s":"2","1s":"2"},"criticalTemperature":"","heatOfFusion":"50.2"}