{"hardnessScaleMohs":"1.25","opticalReflectivity":"","meltingPointFootnote":"","conductivityElectrical":"0.03","standardCondition":"Solid","crystalStructure":"CubicBody","coefficientOfLinealThermalExpansion":"0.000019","flammabilityClass":"","molarHeatCapacity":"28.07","numberOfNeutrons":"81","series":"Alkali Earth Metal","vaporPressure":{"pa100k":"1897","pa100kFootnote":"","pa100Footnote":"","pa100":"912","pa1Footnote":"s","pa1":"638","pa1kFootnote":"","pa1k":"1115","pa10kFootnote":"","pa10Footnote":"","pa10k":"1413","pa10":"765"},"casRegistryNumber":"7440-39-3","oxidationStates":"2","lineSpectra":[{"intensity":"0","airWavelength":"0","spectrum":"TBD"}],"numberOfElectrons":"56","magneticSusceptibility":"+20.6","atomicVolume":"39.24","abundanceCrust":"4.25x10²","boilingPoint":"1897","discoveryYear":"1808","electroNegativity":"0.89","meltingPoint":"727","elasticModulusBulk":"9.6","boilingPointFootnote":"","ionizationPotentialSecond":"10.004","conductivityThermal":"0.184","discoveryLocation":"England","descr":"Soft heavy silver colored metal.","elasticModulusRigidity":"4.9","discoverer":"Sir Humphrey Davy","ionicRadius":"1.35","numberOfProtons":"56","abundanceSea":"1.3x10⁻²","atomicMass":"137.327","molarVolume":"38.21","ionizationPotentialFirst":"5.212","hardnessScaleVickers":"","enthalpyOfAtomization":"175.7","density":"3.62","enthalpyOfFusion":"7.66","opticalRefractiveIndex":"","qualitativeSolubility":"reacts with H₂0, soluble in ethanol","name":"Barium","specificHeat":"0.204","atomicMassUncertainty":7,"valenceElectronPotential":"21.3","covalentRadius":"1.98","electronWorkFunction":"2.7","valenceElectrons":[{"6s":"2"}],"atomicMassKnownAccurately":true,"period":"6","symbol":"Ba","nuclidesAndIsotopes":[{"nuclideSymbol":"","decayEnergy":"","decayModes":"","zp":"","halfLife":"","nn":"","nuclearSpin":"","daughterIsotopes":"","isotopicComposition":"","atomicMass":""}],"elasticModulusYoungs":"13","atomicMassFootnote":"","incompatibilities":"","fillingOrbital":[{"6s":"2"}],"atomicRadius":"2.78","enthalpyOfVaporization":"140","heatOfVaporization":"142","hardnessScaleBrinell":"","group":"2","atomicNumber":56,"relativeGasDensity":"","ionizationPotentialThird":"","crossSection":"1.2","electroChemicalEquivalent":"2.5621","electronConfiguration":{"5s":"2","3d":"10","4s":"2","3s":"2","5p":"6","2s":"2","4p":"6","1s":"2","3p":"6","2p":"6","4d":"10","6s":"2"},"criticalTemperature":"","heatOfFusion":"7.75"}