{"hardnessScaleMohs":"5.5","opticalReflectivity":"","meltingPointFootnote":"","conductivityElectrical":"0.313 10-e6","standardCondition":"Solid","crystalStructure":"Hexagonal","coefficientOfLinealThermalExpansion":"0.0000116","flammabilityClass":"Non-combustible solid (except as dust)","molarHeatCapacity":"16.443","numberOfNeutrons":"5","series":"Alkali Earth Metal","vaporPressure":{"pa10":"1335","pa100kFootnote":"","pa100Footnote":"","pa100":"1518","pa1Footnote":"s","pa1":"1189","pa1kFootnote":"","pa1k":"1750","pa10kFootnote":"","pa10Footnote":"","pa10k":"2054","pa100k":"2469"},"casRegistryNumber":"7440-41-7","oxidationStates":"2","lineSpectra":[{"intensity":"90","airWavelength":"4249.1400","spectrum":"Be III"},{"intensity":"60","airWavelength":"4360.6630","spectrum":"Be II"},{"intensity":"100","airWavelength":"4360.9880","spectrum":"Be II"},{"intensity":"2","airWavelength":"4485.5200","spectrum":"Be III"},{"intensity":"100","airWavelength":"4487.3000","spectrum":"Be III"},{"intensity":"1","airWavelength":"4495.0900","spectrum":"Be III"},{"intensity":"140","airWavelength":"4497.8000","spectrum":"Be III"},{"intensity":"12","airWavelength":"4572.6640","spectrum":"Be I"},{"intensity":"140","airWavelength":"4673.3290","spectrum":"Be II"},{"intensity":"200","airWavelength":"4673.4230","spectrum":"Be II"},{"intensity":"40","airWavelength":"4828.1590","spectrum":"Be II"},{"intensity":"60","airWavelength":"5270.2800","spectrum":"Be II"},{"intensity":"100","airWavelength":"5270.8100","spectrum":"Be II"},{"intensity":"140","airWavelength":"6142.0100","spectrum":"Be III"},{"intensity":"12","airWavelength":"6547.8900","spectrum":"Be II"},{"intensity":"12","airWavelength":"6558.3600","spectrum":"Be II"},{"intensity":"10","airWavelength":"6982.7490","spectrum":"Be I"}],"numberOfElectrons":"4","magneticSusceptibility":"-9.0","atomicVolume":"5","abundanceCrust":"2.8","boilingPoint":"2471","discoveryYear":"1798","electroNegativity":"1.57","meltingPoint":"1287","elasticModulusBulk":"130","boilingPointFootnote":"","ionizationPotentialSecond":"18.211","conductivityThermal":"2.01","discoveryLocation":"Germany\/France","descr":"Strong, hard, gray-white metal. Lightest rigid metal. Formerly called glucinium (Gl).","elasticModulusRigidity":"132","discoverer":"Vauquelin","ionicRadius":"0.35","numberOfProtons":"4","abundanceSea":"5.6x10⁻⁶","atomicMass":"9.012182","ionizationPotentialFirst":"9.322","molarVolume":"4.85","hardnessScaleVickers":"1670","enthalpyOfAtomization":"326.4","density":"1.848","enthalpyOfFusion":"11.72","opticalRefractiveIndex":"","qualitativeSolubility":"soluble in acid, alkaline solutions","name":"Beryllium","specificHeat":"1.825","atomicMassUncertainty":3,"valenceElectronPotential":"82","covalentRadius":"0.9","electronWorkFunction":"4.98","valenceElectrons":[{"2s":"2"}],"atomicMassKnownAccurately":true,"period":"2","symbol":"Be","nuclidesAndIsotopes":[{"nuclideSymbol":"Be5","decayEnergy":"","decayModes":"","zp":"","halfLife":"","nn":"1","nuclearSpin":"","daughterIsotopes":"","isotopicComposition":"Syn","atomicMass":"5.04"},{"nuclideSymbol":"Be6","decayEnergy":"1.372","decayModes":"P","zp":"","halfLife":"92keV","nn":"2","nuclearSpin":"0+","daughterIsotopes":"He4","isotopicComposition":"Syn","atomicMass":"6.097"},{"nuclideSymbol":"Be7","decayEnergy":"0.862","decayModes":"ξ","zp":"","halfLife":"53.12d","nn":"3","nuclearSpin":"3\/2-","daughterIsotopes":"Li7","isotopicComposition":"Syn","atomicMass":"7.0169"},{"nuclideSymbol":"Be8","decayEnergy":"","decayModes":"","zp":"","halfLife":"6.8ev","nn":"4","nuclearSpin":"0+","daughterIsotopes":"","isotopicComposition":"Syn","atomicMass":"8.0053"},{"nuclideSymbol":"Be9","decayEnergy":"","decayModes":"","zp":"","halfLife":"Stable","nn":"5","nuclearSpin":"3\/2-","daughterIsotopes":"","isotopicComposition":"100","atomicMass":"9.0122"},{"nuclideSymbol":"Be10","decayEnergy":"0.556","decayModes":"β-","zp":"","halfLife":"1.51E⁶y","nn":"6","nuclearSpin":"0+","daughterIsotopes":"B10","isotopicComposition":"Syn","atomicMass":"10.0135"},{"nuclideSymbol":"Be11","decayEnergy":"2.841","decayModes":"β- + α","zp":"3.1","halfLife":"13.81s","nn":"7","nuclearSpin":"1\/2+","daughterIsotopes":"Li7","isotopicComposition":"Syn","atomicMass":"11.0217"},{"nuclideSymbol":"","decayEnergy":"11.506","decayModes":"β-","zp":"","halfLife":"13.81s","nn":"","nuclearSpin":"","daughterIsotopes":"B11","isotopicComposition":"","atomicMass":""},{"nuclideSymbol":"Be12","decayEnergy":"8.337","decayModes":"β- + N","zp":"<1","halfLife":"23.6ms","nn":"8","nuclearSpin":"0+","daughterIsotopes":"B11","isotopicComposition":"Syn","atomicMass":"12.0269"},{"nuclideSymbol":"","decayEnergy":"11.708","decayModes":"β-","zp":"","halfLife":"23.6ms","nn":"","nuclearSpin":"","daughterIsotopes":"B12","isotopicComposition":"","atomicMass":""},{"nuclideSymbol":"Be13","decayEnergy":"2.0110","decayModes":"N","zp":"","halfLife":"0.9MeV","nn":"9","nuclearSpin":"5\/2+, 1\/2+","daughterIsotopes":"Be12","isotopicComposition":"Syn","atomicMass":"13.036"},{"nuclideSymbol":"Be14","decayEnergy":"15.250","decayModes":"β- + N","zp":"81","halfLife":"4.35ms","nn":"10","nuclearSpin":"0+","daughterIsotopes":"B13","isotopicComposition":"Syn","atomicMass":"14.043"},{"nuclideSymbol":"","decayEnergy":"16.220","decayModes":"β-","zp":"","halfLife":"4.35ms","nn":"","nuclearSpin":"","daughterIsotopes":"B14","isotopicComposition":"","atomicMass":""}],"elasticModulusYoungs":"287","atomicMassFootnote":"","incompatibilities":"acids and strong bases, carbon tetrachloride, phos- phorous 3-chlorolithium, caustics, chlorinated hydrocarbons, oxidizers, molten lithium.","fillingOrbital":[{"2s":"2"}],"atomicRadius":"1.4","enthalpyOfVaporization":"294.7","heatOfVaporization":"292.4","hardnessScaleBrinell":"600","group":"2","atomicNumber":4,"relativeGasDensity":"","ionizationPotentialThird":"153.893","crossSection":"9.2","electroChemicalEquivalent":"","electronConfiguration":{"2s":"2","1s":"2"},"criticalTemperature":"","heatOfFusion":"12.2"}