{"hardnessScaleMohs":"2.225","opticalReflectivity":"","meltingPointFootnote":"","conductivityElectrical":"0.00867","standardCondition":"Solid","crystalStructure":"Rhombohedral","coefficientOfLinealThermalExpansion":"0.0000133","flammabilityClass":"","molarHeatCapacity":"25.52","numberOfNeutrons":"126","series":"Metal","vaporPressure":{"pa100k":"1562","pa100kFootnote":"","pa100Footnote":"","pa100":"892","pa1Footnote":"","pa1":"668","pa1kFootnote":"","pa1k":"1052","pa10kFootnote":"","pa10Footnote":"","pa10k":"1265","pa10":"768"},"casRegistryNumber":"7440-69-9","oxidationStates":"3, 5","lineSpectra":[{"intensity":"0","airWavelength":"0","spectrum":"TBD"}],"numberOfElectrons":"83","magneticSusceptibility":"-280.1","atomicVolume":"21.3","abundanceCrust":"8.5x10⁻³","boilingPoint":"1564","discoveryYear":"Known to the ancients","electroNegativity":"2.02","meltingPoint":"271.40","elasticModulusBulk":"31","boilingPointFootnote":"","ionizationPotentialSecond":"16.687","conductivityThermal":"0.0787","discoveryLocation":"?","descr":"Brittle white metal with a pink tint.","elasticModulusRigidity":"12","discoverer":"Known to the ancients","ionicRadius":"1.03","numberOfProtons":"83","abundanceSea":"2x10⁻⁵","atomicMass":"208.98038","molarVolume":"21.37","ionizationPotentialFirst":"7.289","hardnessScaleVickers":"","enthalpyOfAtomization":"207.1","density":"9.79","enthalpyOfFusion":"10.9","opticalRefractiveIndex":"","qualitativeSolubility":"soluble in acid","name":"Bismuth","specificHeat":"0.122","atomicMassUncertainty":2,"valenceElectronPotential":"41.9","covalentRadius":"1.46","electronWorkFunction":"4.22","valenceElectrons":[{"6s":"2"},{"6p":"3"}],"atomicMassKnownAccurately":true,"period":"6","symbol":"Bi","nuclidesAndIsotopes":[{"nuclideSymbol":"","decayEnergy":"","decayModes":"","zp":"","halfLife":"","nn":"","nuclearSpin":"","daughterIsotopes":"","isotopicComposition":"","atomicMass":""}],"elasticModulusYoungs":"32","atomicMassFootnote":"","incompatibilities":"","fillingOrbital":[{"6p":"3"}],"atomicRadius":"1.63","enthalpyOfVaporization":"151","heatOfVaporization":"104.8","hardnessScaleBrinell":"94.2","group":"15","atomicNumber":83,"relativeGasDensity":"","ionizationPotentialThird":"25.559","crossSection":"19","electroChemicalEquivalent":"2.599","electronConfiguration":{"3d":"10","5s":"2","4s":"2","6p":"3","3s":"2","4f":"14","5p":"6","2s":"2","4p":"6","1s":"2","3p":"6","2p":"6","5d":"10","4d":"10","6s":"2"},"criticalTemperature":"","heatOfFusion":"11.3"}