{"hardnessScaleMohs":"","opticalReflectivity":"","meltingPointFootnote":"","conductivityElectrical":"","standardCondition":"Liquid","crystalStructure":"Cubic","coefficientOfLinealThermalExpansion":"","flammabilityClass":"Noncombustable Liquid","molarHeatCapacity":"36.057","numberOfNeutrons":"45","series":"Halogen","vaporPressure":{"pa10":"-71.8","pa100kFootnote":"","pa100Footnote":"s","pa100":"-52.7","pa1Footnote":"s","pa1":"-87.7","pa1kFootnote":"s","pa1k":"-29.3","pa10kFootnote":"","pa10Footnote":"s","pa10k":"2.5","pa100k":"58.4"},"casRegistryNumber":"7440-95-6","oxidationStates":"±1, 5","lineSpectra":[{"intensity":"1000","airWavelength":"4223.8900","spectrum":"Br II"},{"intensity":"1000","airWavelength":"4365.6300","spectrum":"Br II"},{"intensity":"130","airWavelength":"4441.7400","spectrum":"Br I"},{"intensity":"130","airWavelength":"4472.6100","spectrum":"Br I"},{"intensity":"250","airWavelength":"4477.7200","spectrum":"Br I"},{"intensity":"200","airWavelength":"4525.5900","spectrum":"Br I"},{"intensity":"500","airWavelength":"4542.8900","spectrum":"Br II"},{"intensity":"500","airWavelength":"4678.7000","spectrum":"Br II"},{"intensity":"500","airWavelength":"4704.9200","spectrum":"Br II"},{"intensity":"500","airWavelength":"4785.4800","spectrum":"Br II"},{"intensity":"500","airWavelength":"4816.6800","spectrum":"Br II"},{"intensity":"400","airWavelength":"4930.6200","spectrum":"Br II"},{"intensity":"500","airWavelength":"5182.3600","spectrum":"Br II"},{"intensity":"500","airWavelength":"5238.2600","spectrum":"Br II"},{"intensity":"500","airWavelength":"5332.0700","spectrum":"Br II"},{"intensity":"500","airWavelength":"5506.7200","spectrum":"Br II"},{"intensity":"500","airWavelength":"6148.6000","spectrum":"Br I"},{"intensity":"800","airWavelength":"6350.7300","spectrum":"Br I"},{"intensity":"250","airWavelength":"6544.5700","spectrum":"Br I"},{"intensity":"700","airWavelength":"6559.8000","spectrum":"Br I"},{"intensity":"250","airWavelength":"6582.1700","spectrum":"Br I"},{"intensity":"700","airWavelength":"6631.6200","spectrum":"Br I"},{"intensity":"250","airWavelength":"6682.2800","spectrum":"Br I"},{"intensity":"130","airWavelength":"6692.1300","spectrum":"Br I"}],"numberOfElectrons":"35","magneticSusceptibility":"-56.4","atomicVolume":"23.5","abundanceCrust":"2.4","boilingPoint":"58.8","discoveryYear":"1826","electroNegativity":"2.96","meltingPoint":"-7.2","elasticModulusBulk":"1.9","boilingPointFootnote":"","ionizationPotentialSecond":"21.8","conductivityThermal":"0.00122","discoveryLocation":"France","descr":"Heavy red-brown, fuming liquid with a choking, irritating odor; causes tears","elasticModulusRigidity":"","discoverer":"Antoine J. Balard","ionicRadius":"1.96","numberOfProtons":"35","abundanceSea":"6.73x10¹","atomicMass":"79.904","ionizationPotentialFirst":"11.814","molarVolume":"25.62","hardnessScaleVickers":"","enthalpyOfAtomization":"111.7","density":"3.1028","enthalpyOfFusion":"5.29","opticalRefractiveIndex":"1.001132","qualitativeSolubility":"soluble in H₂0","name":"Bromine","specificHeat":"0.226","atomicMassUncertainty":1,"valenceElectronPotential":"-7.35","covalentRadius":"1.14","electronWorkFunction":"","valenceElectrons":[{"4s":"2"},{"4p":"5"}],"atomicMassKnownAccurately":true,"period":"4","symbol":"Br","nuclidesAndIsotopes":[{"nuclideSymbol":"Br67","decayEnergy":"","decayModes":"","zp":"","halfLife":"","nn":"32","nuclearSpin":"","daughterIsotopes":"","isotopicComposition":"Syn","atomicMass":"66.965"},{"nuclideSymbol":"Br68","decayEnergy":"","decayModes":"","zp":"","halfLife":"<1.5us","nn":"33","nuclearSpin":"3+","daughterIsotopes":"","isotopicComposition":"Syn","atomicMass":"67.958"},{"nuclideSymbol":"Br69","decayEnergy":"","decayModes":"P","zp":"","halfLife":"<100ns","nn":"34","nuclearSpin":"","daughterIsotopes":"Se68","isotopicComposition":"Syn","atomicMass":"68.95"},{"nuclideSymbol":"Br70","decayEnergy":"10.400","decayModes":"ξ","zp":"","halfLife":"79.1ms","nn":"35","nuclearSpin":"","daughterIsotopes":"Se70","isotopicComposition":"Syn","atomicMass":"69.945"},{"nuclideSymbol":"Br71","decayEnergy":"6.500","decayModes":"ξ","zp":"","halfLife":"21.4s","nn":"36","nuclearSpin":"5\/2-","daughterIsotopes":"Se71","isotopicComposition":"Syn","atomicMass":"70.939"},{"nuclideSymbol":"Br72","decayEnergy":"8.700","decayModes":"ξ","zp":"","halfLife":"78.6s","nn":"37","nuclearSpin":"3+","daughterIsotopes":"Se72","isotopicComposition":"Syn","atomicMass":"71.936"},{"nuclideSymbol":"MS","decayEnergy":"0.101","decayModes":"IT","zp":"~100","halfLife":"10.6s","nn":"","nuclearSpin":"1-","daughterIsotopes":"Br72","isotopicComposition":"Syn","atomicMass":"0.101MeV"},{"nuclideSymbol":"","decayEnergy":"8.801","decayModes":"ξ","zp":"","halfLife":"10.6s","nn":"","nuclearSpin":"","daughterIsotopes":"Se72","isotopicComposition":"","atomicMass":""},{"nuclideSymbol":"Br73","decayEnergy":"4.660","decayModes":"ξ","zp":"","halfLife":"3.4m","nn":"38","nuclearSpin":"1\/2-","daughterIsotopes":"Se73","isotopicComposition":"Syn","atomicMass":"72.932"},{"nuclideSymbol":"Br74","decayEnergy":"6.907","decayModes":"ξ","zp":"","halfLife":"25.4m","nn":"39","nuclearSpin":"0-","daughterIsotopes":"Se74","isotopicComposition":"Syn","atomicMass":"73.9299"},{"nuclideSymbol":"MS","decayEnergy":"6.921","decayModes":"ξ","zp":"","halfLife":"46m","nn":"","nuclearSpin":"4+","daughterIsotopes":"Se74","isotopicComposition":"Syn","atomicMass":"0.014MeV"},{"nuclideSymbol":"Br75","decayEnergy":"3.030","decayModes":"ξ","zp":"","halfLife":"96.7m","nn":"40","nuclearSpin":"3\/2-","daughterIsotopes":"Se75","isotopicComposition":"Syn","atomicMass":"74.9258"},{"nuclideSymbol":"Br76","decayEnergy":"4.963","decayModes":"ξ","zp":"","halfLife":"16.2h","nn":"41","nuclearSpin":"1-","daughterIsotopes":"Se76","isotopicComposition":"Syn","atomicMass":"75.9245"},{"nuclideSymbol":"MS","decayEnergy":"0.103","decayModes":"IT","zp":">99.4","halfLife":"1.31s","nn":"","nuclearSpin":"4+","daughterIsotopes":"","isotopicComposition":"Syn","atomicMass":"0.103MeV"},{"nuclideSymbol":"","decayEnergy":"5.066","decayModes":"ξ","zp":"<0.65","halfLife":"1.31s","nn":"","nuclearSpin":"","daughterIsotopes":"Se76","isotopicComposition":"","atomicMass":""},{"nuclideSymbol":"Br77","decayEnergy":"1.365","decayModes":"ξ","zp":"","halfLife":"57.036h","nn":"42","nuclearSpin":"3\/2-","daughterIsotopes":"Se77","isotopicComposition":"Syn","atomicMass":"76.9214"},{"nuclideSymbol":"MS","decayEnergy":"0.106","decayModes":"IT","zp":"","halfLife":"4.28m","nn":"","nuclearSpin":"9\/2+","daughterIsotopes":"","isotopicComposition":"Syn","atomicMass":"0.105MeV"},{"nuclideSymbol":"Br78","decayEnergy":"3.574","decayModes":"ξ","zp":">=99.99","halfLife":"6.46m","nn":"43","nuclearSpin":"1+","daughterIsotopes":"Se78","isotopicComposition":"Syn","atomicMass":"77.9212"},{"nuclideSymbol":"","decayEnergy":"0.706","decayModes":"β-","zp":"<=0.01","halfLife":"6.46m","nn":"","nuclearSpin":"","daughterIsotopes":"Kr78","isotopicComposition":"","atomicMass":""},{"nuclideSymbol":"Br79","decayEnergy":"","decayModes":"","zp":"","halfLife":"Stable","nn":"44","nuclearSpin":"3\/2-","daughterIsotopes":"","isotopicComposition":"50.69","atomicMass":"78.9183"},{"nuclideSymbol":"MS","decayEnergy":"0.208","decayModes":"IT","zp":"","halfLife":"4.86s","nn":"","nuclearSpin":"9\/2+","daughterIsotopes":"","isotopicComposition":"Syn","atomicMass":"0.208MeV"},{"nuclideSymbol":"Br80","decayEnergy":"2.004","decayModes":"β-","zp":"91.7","halfLife":"17.68m","nn":"45","nuclearSpin":"1+","daughterIsotopes":"Kr80","isotopicComposition":"Syn","atomicMass":"79.9185"},{"nuclideSymbol":"","decayEnergy":"1.871","decayModes":"ξ","zp":"8.3","halfLife":"17.68m","nn":"","nuclearSpin":"","daughterIsotopes":"Se80","isotopicComposition":"","atomicMass":""},{"nuclideSymbol":"MS","decayEnergy":"0.086","decayModes":"IT","zp":"","halfLife":"4.4205MeV","nn":"","nuclearSpin":"5-","daughterIsotopes":"","isotopicComposition":"Syn","atomicMass":"0.086MeV"},{"nuclideSymbol":"Br81","decayEnergy":"","decayModes":"","zp":"","halfLife":"Stable","nn":"46","nuclearSpin":"3\/2-","daughterIsotopes":"","isotopicComposition":"49.31","atomicMass":"80.9163"},{"nuclideSymbol":"Br82","decayEnergy":"3.093","decayModes":"β-","zp":"","halfLife":"35.3h","nn":"47","nuclearSpin":"5-","daughterIsotopes":"Kr82","isotopicComposition":"Syn","atomicMass":"81.9168"},{"nuclideSymbol":"MS","decayEnergy":"0.046","decayModes":"IT","zp":"97.6","halfLife":"6.13m","nn":"","nuclearSpin":"2-","daughterIsotopes":"","isotopicComposition":"Syn","atomicMass":"0.045MeV"},{"nuclideSymbol":"","decayEnergy":"3.139","decayModes":"β-","zp":"2.4","halfLife":"6.13m","nn":"","nuclearSpin":"","daughterIsotopes":"Kr82","isotopicComposition":"","atomicMass":""},{"nuclideSymbol":"Br83","decayEnergy":"0.972","decayModes":"β-","zp":"","halfLife":"2.4h","nn":"48","nuclearSpin":"3\/2-","daughterIsotopes":"Kr83","isotopicComposition":"Syn","atomicMass":"82.9152"},{"nuclideSymbol":"Br84","decayEnergy":"4.650","decayModes":"β-","zp":"","halfLife":"31.8m","nn":"49","nuclearSpin":"2-","daughterIsotopes":"Kr84","isotopicComposition":"Syn","atomicMass":"83.9165"},{"nuclideSymbol":"MS","decayEnergy":"4.970","decayModes":"β-","zp":"","halfLife":"6m","nn":"","nuclearSpin":"6-","daughterIsotopes":"Kr84","isotopicComposition":"Syn","atomicMass":"0.320MeV"},{"nuclideSymbol":"Br85","decayEnergy":"2.870","decayModes":"β-","zp":"","halfLife":"2.9m","nn":"50","nuclearSpin":"3\/2-","daughterIsotopes":"Kr85","isotopicComposition":"Syn","atomicMass":"84.9156"},{"nuclideSymbol":"Br86","decayEnergy":"7.626","decayModes":"β-","zp":"","halfLife":"55.1s","nn":"51","nuclearSpin":"2-","daughterIsotopes":"Kr86","isotopicComposition":"Syn","atomicMass":"85.9188"},{"nuclideSymbol":"Br87","decayEnergy":"1.337","decayModes":"β- + N","zp":"2.52","halfLife":"55.6s","nn":"52","nuclearSpin":"3\/2-","daughterIsotopes":"Kr86","isotopicComposition":"Syn","atomicMass":"86.9207"},{"nuclideSymbol":"","decayEnergy":"6.853","decayModes":"β-","zp":"","halfLife":"55.6s","nn":"","nuclearSpin":"","daughterIsotopes":"Kr87","isotopicComposition":"","atomicMass":""},{"nuclideSymbol":"Br88","decayEnergy":"1.910","decayModes":"β- + N","zp":"6.58","halfLife":"16.34s","nn":"53","nuclearSpin":"1, 2-","daughterIsotopes":"Kr87","isotopicComposition":"Syn","atomicMass":"87.9241"},{"nuclideSymbol":"","decayEnergy":"8.960","decayModes":"β-","zp":"","halfLife":"16.34s","nn":"","nuclearSpin":"","daughterIsotopes":"Kr88","isotopicComposition":"","atomicMass":""},{"nuclideSymbol":"Br89","decayEnergy":"3.050","decayModes":"β- + N","zp":"13.8","halfLife":"4.348s","nn":"54","nuclearSpin":"2-, 5\/2-","daughterIsotopes":"Kr88","isotopicComposition":"Syn","atomicMass":"88.9264"},{"nuclideSymbol":"","decayEnergy":"8.160","decayModes":"β-","zp":"","halfLife":"4.348s","nn":"","nuclearSpin":"","daughterIsotopes":"Kr89","isotopicComposition":"","atomicMass":""},{"nuclideSymbol":"Br90","decayEnergy":"4.040","decayModes":"β- + N","zp":"25.2","halfLife":"","nn":"55","nuclearSpin":"1.91s","daughterIsotopes":"Kr89","isotopicComposition":"Syn","atomicMass":"89.9306"},{"nuclideSymbol":"","decayEnergy":"10.350","decayModes":"β-","zp":"","halfLife":"1.91s","nn":"","nuclearSpin":"","daughterIsotopes":"Kr90","isotopicComposition":"","atomicMass":""},{"nuclideSymbol":"Br91","decayEnergy":"5.340","decayModes":"β- + N","zp":"20","halfLife":"0.541s","nn":"56","nuclearSpin":"","daughterIsotopes":"Kr90","isotopicComposition":"Syn","atomicMass":"90.934"},{"nuclideSymbol":"","decayEnergy":"9.800","decayModes":"β-","zp":"","halfLife":"0.541s","nn":"","nuclearSpin":"","daughterIsotopes":"Kr91","isotopicComposition":"","atomicMass":""},{"nuclideSymbol":"Br92","decayEnergy":"6.660","decayModes":"β- + N","zp":"33.1","halfLife":"0.343s","nn":"57","nuclearSpin":"2-","daughterIsotopes":"Kr91","isotopicComposition":"Syn","atomicMass":"91.9393"},{"nuclideSymbol":"","decayEnergy":"12.200","decayModes":"β-","zp":"","halfLife":"0.343s","nn":"","nuclearSpin":"","daughterIsotopes":"Kr92","isotopicComposition":"","atomicMass":""},{"nuclideSymbol":"Br93","decayEnergy":"7.700","decayModes":"β- + N","zp":"10","halfLife":"102ms","nn":"58","nuclearSpin":"5\/2-","daughterIsotopes":"Kr92","isotopicComposition":"Syn","atomicMass":"92.943"},{"nuclideSymbol":"","decayEnergy":"11.000","decayModes":"β-","zp":"","halfLife":"102ms","nn":"","nuclearSpin":"","daughterIsotopes":"Kr93","isotopicComposition":"","atomicMass":""},{"nuclideSymbol":"Br94","decayEnergy":"","decayModes":"β- + N","zp":"30","halfLife":"70ms","nn":"59","nuclearSpin":"","daughterIsotopes":"Kr93","isotopicComposition":"Syn","atomicMass":"93.949"},{"nuclideSymbol":"","decayEnergy":"","decayModes":"β-","zp":"","halfLife":"70ms","nn":"","nuclearSpin":"","daughterIsotopes":"Kr94","isotopicComposition":"","atomicMass":""},{"nuclideSymbol":"Br95","decayEnergy":"","decayModes":"β-","zp":"","halfLife":"","nn":"60","nuclearSpin":"3\/2-","daughterIsotopes":"","isotopicComposition":"Syn","atomicMass":""}],"atomicMassFootnote":"","elasticModulusTYoung":"","incompatibilities":"combustible organics (sawdust, wood, cotton, straw, etc.), oxidizable material, aqueous ammonia, hydrogen, acetylene, phosphorus, aluminum, titanium, mercury, potassium, other metals.","fillingOrbital":[{"4p":"5"}],"atomicRadius":"1.12","enthalpyOfVaporization":"15.46","heatOfVaporization":"15.438","hardnessScaleBrinell":"","group":"17","atomicNumber":35,"relativeGasDensity":"5.51","ionizationPotentialThird":"36","crossSection":"6.8","electroChemicalEquivalent":"2.9812","electronConfiguration":{"4p":"5","3p":"6","4s":"2","2p":"6","3s":"2","2s":"2","3d":"10","1s":"2"},"criticalTemperature":"315","heatOfFusion":"5.286"}