{"hardnessScaleMohs":"0.5","opticalReflectivity":"27","meltingPointFootnote":"triple point @ 103 MPa (graphite)","conductivityElectrical":"0.00061","standardCondition":"Solid","crystalStructure":"Hexagonal","coefficientOfLinealThermalExpansion":"0.0000021","flammabilityClass":"Combustable solid (graphite)","molarHeatCapacity":"8.517","numberOfNeutrons":"6","series":"Non Metal","vaporPressure":{"pa10":"2566","pa100kFootnote":"s","pa100Footnote":"s","pa100":"2775","pa1Footnote":"","pa1":"","pa1kFootnote":"s","pa1k":"3016","pa10kFootnote":"s","pa10Footnote":"s","pa10k":"3299","pa100k":"3635"},"casRegistryNumber":"7440-34-8","oxidationStates":"4, 2","lineSpectra":[{"intensity":"150","airWavelength":"4056.0600","spectrum":"C III"},{"intensity":"200","airWavelength":"4067.9400","spectrum":"C III"},{"intensity":"250","airWavelength":"4068.9100","spectrum":"C III"},{"intensity":"250","airWavelength":"4070.2600","spectrum":"C III"},{"intensity":"150","airWavelength":"4162.8600","spectrum":"C III"},{"intensity":"250","airWavelength":"4186.9000","spectrum":"C III"},{"intensity":"400","airWavelength":"4267.0030","spectrum":"C II"},{"intensity":"500","airWavelength":"4267.2580","spectrum":"C II"},{"intensity":"200","airWavelength":"4325.5600","spectrum":"C III"},{"intensity":"600","airWavelength":"4647.4200","spectrum":"C III"},{"intensity":"520","airWavelength":"4650.2500","spectrum":"C III"},{"intensity":"375","airWavelength":"4651.4700","spectrum":"C III"},{"intensity":"200","airWavelength":"4658.3000","spectrum":"C IV"},{"intensity":"200","airWavelength":"4665.8600","spectrum":"C III"},{"intensity":"5","airWavelength":"4943.8800","spectrum":"C V"},{"intensity":"5","airWavelength":"4944.5600","spectrum":"C V"},{"intensity":"300","airWavelength":"5145.1600","spectrum":"C II"},{"intensity":"200","airWavelength":"5151.0900","spectrum":"C II"},{"intensity":"150","airWavelength":"5380.3400","spectrum":"C I"},{"intensity":"250","airWavelength":"5801.3300","spectrum":"C IV"},{"intensity":"200","airWavelength":"5811.9800","spectrum":"C IV"},{"intensity":"150","airWavelength":"5826.4200","spectrum":"C III"},{"intensity":"300","airWavelength":"5889.7700","spectrum":"C II"},{"intensity":"150","airWavelength":"6013.2200","spectrum":"C I"},{"intensity":"400","airWavelength":"6578.0500","spectrum":"C II"},{"intensity":"300","airWavelength":"6582.8800","spectrum":"C II"},{"intensity":"150","airWavelength":"6744.3800","spectrum":"C III"}],"numberOfElectrons":"6","magneticSusceptibility":"-6.0","atomicVolume":"4.58","abundanceCrust":"2.00x10⁻²","boilingPoint":"3825","discoveryYear":"Known to the ancients","electroNegativity":"2.55","meltingPoint":"4489","elasticModulusBulk":"33","boilingPointFootnote":"sublimation point (graphite)","ionizationPotentialSecond":"24.383","conductivityThermal":"1.29","discoveryLocation":"?","descr":"In pure form as diamonds or graphite.","elasticModulusRigidity":"","discoverer":"Known to the ancients","ionicRadius":"","numberOfProtons":"6","abundanceSea":"2.8x10¹","atomicMass":"12.0107","ionizationPotentialFirst":"11.26","molarVolume":"5.34","hardnessScaleVickers":"","enthalpyOfAtomization":"","density":"2.2","enthalpyOfFusion":"104.6","opticalRefractiveIndex":"2.417 (diamond)","qualitativeSolubility":"insoluble in H₂0","name":"Carbon","specificHeat":"0.709","atomicMassUncertainty":8,"valenceElectronPotential":"","covalentRadius":"0.77","electronWorkFunction":"","valenceElectrons":[{"1s":"1"}],"atomicMassKnownAccurately":true,"period":"2","symbol":"C","nuclidesAndIsotopes":[{"nuclideSymbol":"C8","decayEnergy":"2.142","decayModes":"P","zp":"","halfLife":"230keV","nn":"2","nuclearSpin":"0+","daughterIsotopes":"Be6","isotopicComposition":"Syn","atomicMass":"8.0377"},{"nuclideSymbol":"C9","decayEnergy":"16.498","decayModes":"ξ","zp":"","halfLife":"126.5ms","nn":"3","nuclearSpin":"3\/2-","daughterIsotopes":"B9","isotopicComposition":"Syn","atomicMass":"9.031"},{"nuclideSymbol":"","decayEnergy":"16.775","decayModes":"ξ + α","zp":"","halfLife":"126.5ms","nn":"","nuclearSpin":"","daughterIsotopes":"H2","isotopicComposition":"","atomicMass":""},{"nuclideSymbol":" ","decayEnergy":"16.683","decayModes":"ξ + P","zp":"","halfLife":"126.5ms","nn":" ","nuclearSpin":" ","daughterIsotopes":"Be8","isotopicComposition":" ","atomicMass":" "},{"nuclideSymbol":"C10","decayEnergy":"3.648","decayModes":"ξ","zp":"","halfLife":"19.355ms","nn":"4","nuclearSpin":"0+","daughterIsotopes":"B10","isotopicComposition":"Syn","atomicMass":"10.0169"},{"nuclideSymbol":"C11","decayEnergy":"1.982","decayModes":"ξ","zp":"","halfLife":"20.39m","nn":"5","nuclearSpin":"3\/2-","daughterIsotopes":"B11","isotopicComposition":"Syn","atomicMass":"11.0114"},{"nuclideSymbol":"C12","decayEnergy":"","decayModes":"","zp":"","halfLife":"Stable","nn":"6","nuclearSpin":"0+","daughterIsotopes":"","isotopicComposition":"98.9","atomicMass":"12.0"},{"nuclideSymbol":"C13","decayEnergy":"","decayModes":"","zp":"","halfLife":"Stable","nn":"7","nuclearSpin":"1\/2+","daughterIsotopes":"C12","isotopicComposition":"1.1","atomicMass":"13.0034"},{"nuclideSymbol":"C14","decayEnergy":"0.156","decayModes":"β-","zp":"","halfLife":"5730y","nn":"8","nuclearSpin":"0+","daughterIsotopes":"N14","isotopicComposition":"","atomicMass":"14.0032"},{"nuclideSymbol":"C15","decayEnergy":"9.772","decayModes":"β-","zp":"","halfLife":"2.449s","nn":"9","nuclearSpin":"1\/2+","daughterIsotopes":"N15","isotopicComposition":"Syn","atomicMass":"15.0106"},{"nuclideSymbol":"C16","decayEnergy":"8.012","decayModes":"β-","zp":"","halfLife":"0.747s","nn":"10","nuclearSpin":"0+","daughterIsotopes":"N16","isotopicComposition":"Syn","atomicMass":"16.0147"},{"nuclideSymbol":"C17","decayEnergy":"7.283","decayModes":"β- + N","zp":"32","halfLife":"193ms","nn":"11","nuclearSpin":"","daughterIsotopes":"N16","isotopicComposition":"Syn","atomicMass":"17.0226"},{"nuclideSymbol":"","decayEnergy":"13.166","decayModes":"β-","zp":"","halfLife":"193ms","nn":"","nuclearSpin":"","daughterIsotopes":"N17","isotopicComposition":"","atomicMass":""},{"nuclideSymbol":"C18","decayEnergy":"8.980","decayModes":"β- + N","zp":"19","halfLife":"95ms","nn":"12","nuclearSpin":"0+","daughterIsotopes":"N17","isotopicComposition":"Syn","atomicMass":"18.0268"},{"nuclideSymbol":" ","decayEnergy":"11.810","decayModes":"β-","zp":"","halfLife":"95ms","nn":" ","nuclearSpin":"","daughterIsotopes":"N18","isotopicComposition":" ","atomicMass":" "},{"nuclideSymbol":"C19","decayEnergy":"11.640","decayModes":"β- + N","zp":"61","halfLife":"46ms","nn":"13","nuclearSpin":"","daughterIsotopes":"N18","isotopicComposition":"Syn","atomicMass":"19.035"},{"nuclideSymbol":" ","decayEnergy":"16.970","decayModes":"β-","zp":"","halfLife":"46ms","nn":" ","nuclearSpin":"","daughterIsotopes":"N19","isotopicComposition":" ","atomicMass":" "},{"nuclideSymbol":"C20","decayEnergy":"13.630","decayModes":"β- + N","zp":"72","halfLife":"14ms","nn":"14","nuclearSpin":"0+","daughterIsotopes":"N19","isotopicComposition":"Syn","atomicMass":"20.04"},{"nuclideSymbol":"","decayEnergy":"15.790","decayModes":"β-","zp":" ","halfLife":"14ms","nn":"","nuclearSpin":"","daughterIsotopes":"N20","isotopicComposition":" ","atomicMass":" "},{"nuclideSymbol":"C21","decayEnergy":"","decayModes":"","zp":"","halfLife":"","nn":"15","nuclearSpin":"","daughterIsotopes":"","isotopicComposition":"Syn","atomicMass":"21.049"},{"nuclideSymbol":"C22","decayEnergy":"","decayModes":"","zp":"","halfLife":"> 200ns","nn":"16","nuclearSpin":"0+","daughterIsotopes":"","isotopicComposition":"Syn","atomicMass":"22.056"}],"elasticModulusYoungs":"","atomicMassFootnote":"g r","incompatibilities":"Very strong oxidizers such as florine, chlorine and potassium peroxide","fillingOrbital":[{"2p":"2"}],"atomicRadius":"0.91","enthalpyOfVaporization":"","heatOfVaporization":"355.8","hardnessScaleBrinell":"","group":"14","atomicNumber":6,"relativeGasDensity":"","ionizationPotentialThird":"47.887","crossSection":"","electroChemicalEquivalent":"","electronConfiguration":{"2p":"2","2s":"2","1s":"2"},"criticalTemperature":"","heatOfFusion":""}