{"hardnessScaleMohs":"1.75","opticalReflectivity":"","meltingPointFootnote":"","conductivityElectrical":"0.298","standardCondition":"Solid","crystalStructure":"CubicFace","coefficientOfLinealThermalExpansion":"0.0000223","flammabilityClass":"Flammable solid","molarHeatCapacity":"25.929","numberOfNeutrons":"20","series":"Alkali Earth Metal","vaporPressure":{"pa10":"683","pa100kFootnote":"","pa100Footnote":"s","pa100":"798","pa1Footnote":"s","pa1":"591","pa1kFootnote":"","pa1k":"954","pa10kFootnote":"","pa10Footnote":"s","pa10k":"1170","pa100k":"1482"},"casRegistryNumber":"7440-70-2","oxidationStates":"2","lineSpectra":[{"intensity":"1000","airWavelength":"4226.7270","spectrum":"Ca I"},{"intensity":"500","airWavelength":"4302.5270","spectrum":"Ca I"},{"intensity":"20","airWavelength":"4302.8100","spectrum":"Ca III"},{"intensity":"500","airWavelength":"4307.7410","spectrum":"Ca I"},{"intensity":"19","airWavelength":"4399.5900","spectrum":"Ca III"},{"intensity":"500","airWavelength":"4425.4410","spectrum":"Ca I"},{"intensity":"500","airWavelength":"4434.9600","spectrum":"Ca I"},{"intensity":"500","airWavelength":"4435.6880","spectrum":"Ca I"},{"intensity":"600","airWavelength":"4454.7810","spectrum":"Ca I"},{"intensity":"600","airWavelength":"4455.8870","spectrum":"Ca I"},{"intensity":"400","airWavelength":"4456.6050","spectrum":"Ca I"},{"intensity":"19","airWavelength":"4499.8800","spectrum":"Ca III"},{"intensity":"500","airWavelength":"4878.1320","spectrum":"Ca I"},{"intensity":"300","airWavelength":"5019.9710","spectrum":"Ca II"},{"intensity":"500","airWavelength":"5188.8480","spectrum":"Ca I"},{"intensity":"500","airWavelength":"5265.5570","spectrum":"Ca I"},{"intensity":"500","airWavelength":"5270.2700","spectrum":"Ca I"},{"intensity":"500","airWavelength":"5349.4720","spectrum":"Ca I"},{"intensity":"500","airWavelength":"5581.9710","spectrum":"Ca I"},{"intensity":"500","airWavelength":"5588.7570","spectrum":"Ca I"},{"intensity":"500","airWavelength":"5590.1200","spectrum":"Ca I"},{"intensity":"500","airWavelength":"5594.4680","spectrum":"Ca I"},{"intensity":"500","airWavelength":"5598.4870","spectrum":"Ca I"},{"intensity":"600","airWavelength":"5857.4520","spectrum":"Ca I"},{"intensity":"500","airWavelength":"6102.7220","spectrum":"Ca I"},{"intensity":"600","airWavelength":"6122.2190","spectrum":"Ca I"},{"intensity":"600","airWavelength":"6162.1720","spectrum":"Ca I"},{"intensity":"500","airWavelength":"6169.0550","spectrum":"Ca I"},{"intensity":"600","airWavelength":"6169.5590","spectrum":"Ca I"},{"intensity":"700","airWavelength":"6439.0730","spectrum":"Ca I"},{"intensity":"600","airWavelength":"6449.8100","spectrum":"Ca I"},{"intensity":"300","airWavelength":"6456.8740","spectrum":"Ca II"},{"intensity":"700","airWavelength":"6462.5660","spectrum":"Ca I"},{"intensity":"600","airWavelength":"6471.6600","spectrum":"Ca I"},{"intensity":"600","airWavelength":"6493.7800","spectrum":"Ca I"},{"intensity":"600","airWavelength":"6499.6490","spectrum":"Ca I"},{"intensity":"500","airWavelength":"6572.7770","spectrum":"Ca I"},{"intensity":"600","airWavelength":"6717.6850","spectrum":"Ca I"}],"numberOfElectrons":"20","magneticSusceptibility":"+40","atomicVolume":"29.9","abundanceCrust":"54.15x10⁴","boilingPoint":"1484","discoveryYear":"1808","electroNegativity":"1","meltingPoint":"842","elasticModulusBulk":"17","boilingPointFootnote":"","ionizationPotentialSecond":"11.871","conductivityThermal":"2.01","discoveryLocation":"England","descr":"Silvery, soft metal, tarnishes to grayish white after exposure to air.","elasticModulusRigidity":"7.4","discoverer":"Sir Humphrey Davy","ionicRadius":"0.99","numberOfProtons":"20","abundanceSea":"4.12x10²","atomicMass":"40.078","ionizationPotentialFirst":"6.113","molarVolume":"26.02","hardnessScaleVickers":"","enthalpyOfAtomization":"194","density":"1.54","enthalpyOfFusion":"8.54","opticalRefractiveIndex":"","qualitativeSolubility":"reacts with H₂0; insoluble in benzene","name":"Calcium","specificHeat":"0.647","atomicMassUncertainty":4,"valenceElectronPotential":"29","covalentRadius":"1.74","electronWorkFunction":"2.87","valenceElectrons":[{"4s":"2"}],"atomicMassKnownAccurately":true,"period":"4","symbol":"Ca","nuclidesAndIsotopes":[{"nuclideSymbol":"Ca34","decayEnergy":"","decayModes":"","zp":"","halfLife":"","nn":"14","nuclearSpin":"0+","daughterIsotopes":"","isotopicComposition":"Syn","atomicMass":"34.014"},{"nuclideSymbol":"Ca35","decayEnergy":"15.610","decayModes":"ξ","zp":"","halfLife":"50ms","nn":"15","nuclearSpin":"","daughterIsotopes":"K35","isotopicComposition":"Syn","atomicMass":"35.0048"},{"nuclideSymbol":"","decayEnergy":"10.860","decayModes":"ξ + P","zp":"","halfLife":"50ms","nn":"","nuclearSpin":"","daughterIsotopes":"Cl33","isotopicComposition":"","atomicMass":""},{"nuclideSymbol":"Ca36","decayEnergy":"9.320","decayModes":"ξ + P","zp":"57","halfLife":"102ms","nn":"16","nuclearSpin":"0+","daughterIsotopes":"Ar35","isotopicComposition":"Syn","atomicMass":"35.9931"},{"nuclideSymbol":"","decayEnergy":"10.990","decayModes":"ξ","zp":"","halfLife":"102ms","nn":"","nuclearSpin":"","daughterIsotopes":"K36","isotopicComposition":"","atomicMass":""},{"nuclideSymbol":"Ca37","decayEnergy":"9.781","decayModes":"ξ + P","zp":"76","halfLife":"181.1ms","nn":"17","nuclearSpin":"3\/2+","daughterIsotopes":"Ar36","isotopicComposition":"Syn","atomicMass":"36.9859"},{"nuclideSymbol":"","decayEnergy":"11.639","decayModes":"ξ","zp":"","halfLife":"181.1ms","nn":"","nuclearSpin":"","daughterIsotopes":"K37","isotopicComposition":"","atomicMass":""},{"nuclideSymbol":"Ca38","decayEnergy":"6.743","decayModes":"ξ","zp":"","halfLife":"440ms","nn":"18","nuclearSpin":"0+","daughterIsotopes":"K38","isotopicComposition":"Syn","atomicMass":"37.9763"},{"nuclideSymbol":"Ca39","decayEnergy":"6.531","decayModes":"ξ","zp":"","halfLife":"859.6ms","nn":"19","nuclearSpin":"3\/2+","daughterIsotopes":"K39","isotopicComposition":"Syn","atomicMass":"38.9707"},{"nuclideSymbol":"Ca40","decayEnergy":"","decayModes":"","zp":"","halfLife":"Stable","nn":"20","nuclearSpin":"0+","daughterIsotopes":"","isotopicComposition":"96.941","atomicMass":"39.9626"},{"nuclideSymbol":"Ca41","decayEnergy":"0.421","decayModes":"ξ","zp":"","halfLife":"103000y","nn":"21","nuclearSpin":"7\/2-","daughterIsotopes":"K41","isotopicComposition":"Syn","atomicMass":"40.9623"},{"nuclideSymbol":"Ca42","decayEnergy":"","decayModes":"","zp":"","halfLife":"Stable","nn":"22","nuclearSpin":"0+","daughterIsotopes":"","isotopicComposition":"0.647","atomicMass":"41.9586"},{"nuclideSymbol":"Ca43","decayEnergy":"","decayModes":"","zp":"","halfLife":"Stable","nn":"23","nuclearSpin":"7\/2-","daughterIsotopes":"","isotopicComposition":"0.135","atomicMass":"42.9588"},{"nuclideSymbol":"Ca44","decayEnergy":"","decayModes":"","zp":"","halfLife":"Stable","nn":"24","nuclearSpin":"0+","daughterIsotopes":"","isotopicComposition":"2.086","atomicMass":"43.9555"},{"nuclideSymbol":"Ca45","decayEnergy":"0.257","decayModes":"β-","zp":"","halfLife":"162.61d","nn":"25","nuclearSpin":"7\/2-","daughterIsotopes":"Sc45","isotopicComposition":"Syn","atomicMass":"44.9562"},{"nuclideSymbol":"Ca46","decayEnergy":"","decayModes":"","zp":"","halfLife":"Stable","nn":"26","nuclearSpin":"0+","daughterIsotopes":"","isotopicComposition":"0.004","atomicMass":"45.9537"},{"nuclideSymbol":"Ca47","decayEnergy":"1.992","decayModes":"β-","zp":"","halfLife":"4.536d","nn":"27","nuclearSpin":"7\/2-","daughterIsotopes":"Sc47","isotopicComposition":"Syn","atomicMass":"46.9546"},{"nuclideSymbol":"Ca48","decayEnergy":"4.272","decayModes":"β-","zp":"","halfLife":">6E¹⁸y","nn":"28","nuclearSpin":"0+","daughterIsotopes":"Ti48","isotopicComposition":"0.187","atomicMass":"47.9525"},{"nuclideSymbol":"Ca49","decayEnergy":"5.262","decayModes":"β-","zp":"","halfLife":"8.718m","nn":"29","nuclearSpin":"3\/2-","daughterIsotopes":"Sc49","isotopicComposition":"Syn","atomicMass":"48.9557"},{"nuclideSymbol":"Ca50","decayEnergy":"4.966","decayModes":"β-","zp":"","halfLife":"13.9s","nn":"30","nuclearSpin":"0+","daughterIsotopes":"Sc50","isotopicComposition":"Syn","atomicMass":"49.9575"},{"nuclideSymbol":"Ca51","decayEnergy":"7.330","decayModes":"β-","zp":"","halfLife":"10s","nn":"31","nuclearSpin":"3\/2-","daughterIsotopes":"Sc51","isotopicComposition":"Syn","atomicMass":"50.9615"},{"nuclideSymbol":"","decayEnergy":"0.580","decayModes":"β- + N","zp":"","halfLife":"10s","nn":"","nuclearSpin":"","daughterIsotopes":"Sc50","isotopicComposition":"","atomicMass":""},{"nuclideSymbol":"Ca52","decayEnergy":"7.900","decayModes":"β-","zp":"","halfLife":"4.6s","nn":"32","nuclearSpin":"0+","daughterIsotopes":"Sc52","isotopicComposition":"Syn","atomicMass":"51.965"},{"nuclideSymbol":"Ca53","decayEnergy":"4.500","decayModes":"β- + N","zp":">30","halfLife":"90ms","nn":"33","nuclearSpin":"2-, 5\/2-","daughterIsotopes":"Sc52","isotopicComposition":"Syn","atomicMass":"52.97"},{"nuclideSymbol":"","decayEnergy":"10.100","decayModes":"β-","zp":"","halfLife":"90ms","nn":"","nuclearSpin":"","daughterIsotopes":"Sc53","isotopicComposition":"","atomicMass":""},{"nuclideSymbol":"Ca54","decayEnergy":"10.900","decayModes":"β-","zp":"","halfLife":"","nn":"34","nuclearSpin":"0+","daughterIsotopes":"Sc54","isotopicComposition":"Syn","atomicMass":"53.975"},{"nuclideSymbol":"Ca55","decayEnergy":"","decayModes":"","zp":"","halfLife":"","nn":"35","nuclearSpin":"5\/2-","daughterIsotopes":"","isotopicComposition":"Syn","atomicMass":"54.981"},{"nuclideSymbol":"Ca56","decayEnergy":"","decayModes":"","zp":"","halfLife":"","nn":"36","nuclearSpin":"","daughterIsotopes":"","isotopicComposition":"Syn","atomicMass":"55.986"},{"nuclideSymbol":"Ca57","decayEnergy":"","decayModes":"","zp":"","halfLife":"","nn":"37","nuclearSpin":"","daughterIsotopes":"","isotopicComposition":"Syn","atomicMass":"56.99"}],"elasticModulusYoungs":"","atomicMassFootnote":"g","incompatibilities":"Water, oxidizers, acids, air, chlorine, chlorine tri-fluoride, fluorine, oxygen, silicon, sulfer.","fillingOrbital":[{"4s":"2"}],"atomicRadius":"2.23","enthalpyOfVaporization":"150","heatOfVaporization":"153.6","hardnessScaleBrinell":"167","group":"2","atomicNumber":20,"relativeGasDensity":"","ionizationPotentialThird":"50.908","crossSection":"0.44","electroChemicalEquivalent":"Youngs: 20\/GPa","electronConfiguration":{"3p":"6","4s":"2","2p":"6","3s":"2","2s":"2","1s":"2"},"criticalTemperature":"","heatOfFusion":"8.54"}