{"hardnessScaleMohs":"2","opticalReflectivity":"67","meltingPointFootnote":"","conductivityElectrical":"0.138","standardCondition":"Solid","crystalStructure":"Hexagonal","coefficientOfLinealThermalExpansion":"0.0000298","flammabilityClass":"Non-combustible solid (except as dust)","molarHeatCapacity":"26.020","numberOfNeutrons":"64","series":"Transition Metal","vaporPressure":{"pa100k":"767","pa100kFootnote":"","pa100Footnote":"","pa100":"381","pa1Footnote":"s","pa1":"257","pa1kFootnote":"","pa1k":"472","pa10kFootnote":"","pa10Footnote":"s","pa10k":"594","pa10":"310"},"casRegistryNumber":"7440-43-9","oxidationStates":"2","lineSpectra":[{"intensity":"0","airWavelength":"0","spectrum":"TBD"}],"numberOfElectrons":"48","magneticSusceptibility":"-19.7","atomicVolume":"13.1","abundanceCrust":"1.5x10⁻¹","boilingPoint":"767","discoveryYear":"1817","electroNegativity":"1.69","meltingPoint":"321.07","elasticModulusBulk":"42","boilingPointFootnote":"","ionizationPotentialSecond":"16.908","conductivityThermal":"0.968","discoveryLocation":"Germany","descr":"Silvery white transition metal.","elasticModulusRigidity":"19","discoverer":"Fredrich Stromeyer","ionicRadius":"0.97","numberOfProtons":"48","abundanceSea":"1.1x10⁻⁴","atomicMass":"112.411","molarVolume":"13.01","ionizationPotentialFirst":"8.993","hardnessScaleVickers":"","enthalpyOfAtomization":"113","density":"8.69","enthalpyOfFusion":"619","opticalRefractiveIndex":"","qualitativeSolubility":"insoluble in H₂0; reacts with acid","name":"Cadmium","specificHeat":"0.232","atomicMassUncertainty":8,"valenceElectronPotential":"30","covalentRadius":"1.48","electronWorkFunction":"4.22","valenceElectrons":[{"5s":"2"}],"atomicMassKnownAccurately":true,"period":"5","symbol":"Cd","nuclidesAndIsotopes":[{"nuclideSymbol":"","decayEnergy":"","decayModes":"","zp":"","halfLife":"","nn":"","nuclearSpin":"","daughterIsotopes":"","isotopicComposition":"","atomicMass":""}],"elasticModulusYoungs":"50","atomicMassFootnote":"g","incompatibilities":"Strong oxidizers, ammonium nitrate, hydrazoic acid, tellurium, zinc, elemental sulpher, selenium","fillingOrbital":[{"4d":"10"}],"atomicRadius":"1.71","enthalpyOfVaporization":"100","heatOfVaporization":"99.57","hardnessScaleBrinell":"203","group":"12","atomicNumber":48,"relativeGasDensity":"","ionizationPotentialThird":"37.48","crossSection":"245","electroChemicalEquivalent":"2.097","electronConfiguration":{"4p":"6","5s":"2","3p":"6","4s":"2","2p":"6","3s":"2","2s":"2","3d":"10","1s":"2","4d":"10"},"criticalTemperature":"","heatOfFusion":"6.192"}