{"hardnessScaleMohs":"2.5","opticalReflectivity":"","meltingPointFootnote":"","conductivityElectrical":"0.0115","standardCondition":"Solid","crystalStructure":"CubicFace","coefficientOfLinealThermalExpansion":"0.0000071","flammabilityClass":"","molarHeatCapacity":"26.94","numberOfNeutrons":"82","series":"Lanthanide","vaporPressure":{"pa100k":"3432","pa100kFootnote":"","pa100Footnote":"","pa100":"2169","pa1Footnote":"","pa1":"1719","pa1kFootnote":"","pa1k":"2481","pa10kFootnote":"","pa10Footnote":"","pa10k":"2886","pa10":"1921"},"casRegistryNumber":"7440-45-1","oxidationStates":"3, 4","lineSpectra":[{"intensity":"0","airWavelength":"0","spectrum":"TBD"}],"numberOfElectrons":"58","magneticSusceptibility":"+2500","atomicVolume":"20.67","abundanceCrust":"6.65x10¹","boilingPoint":"3443","discoveryYear":"1803","electroNegativity":"1.12","meltingPoint":"798","elasticModulusBulk":"22","boilingPointFootnote":"","ionizationPotentialSecond":"10.851","conductivityThermal":"0.114","discoveryLocation":"Sweden\/Germany","descr":"Soft gray rare earth metal.","elasticModulusRigidity":"14","discoverer":"W. von Hisinger, J. Berzelius, M. Klaproth","ionicRadius":"1.034","numberOfProtons":"58","abundanceSea":"1.2x10⁻⁶","atomicMass":"140.116","molarVolume":"20.7","ionizationPotentialFirst":"5.54","enthalpyOfFusion":"5.46","enthalpyOfAtomization":"381","density":"6.770","opticalRefractiveIndex":"","qualitativeSolubility":"soluble in diluted acid","specificHeat":"0.192","name":"Cerium","valenceElectronPotential":"41.78","atomicMassUncertainty":1,"covalentRadius":"1.65","electronWorkFunction":"2.84","valenceElectrons":[{"4f":"2"},{"6s":"2"}],"atomicMassKnownAccurately":true,"period":"6","symbol":"Ce","nuclidesAndIsotopes":[{"nuclideSymbol":"","decayEnergy":"","decayModes":"","zp":"","halfLife":"","nn":"","nuclearSpin":"","daughterIsotopes":"","isotopicComposition":"","atomicMass":""}],"elasticModulusYoungs":"34","atomicMassFootnote":"g","incompatibilities":"","fillingOrbital":[{"4f":"2"}],"hardnessScaleVIckers":"270","atomicRadius":"2.7","enthalpyOfVaporization":"414","heatOfVaporization":"414","hardnessScaleBrinell":"412","group":"","atomicNumber":58,"relativeGasDensity":"","ionizationPotentialThird":"20.2","crossSection":"0.73","electroChemicalEquivalent":"1.7426","electronConfiguration":{"3d":"10","5s":"2","4s":"2","3s":"2","4f":"1","5p":"6","2s":"2","4p":"6","1s":"2","3p":"6","2p":"6","5d":"1","4d":"10","6s":"2"},"criticalTemperature":"","heatOfFusion":"5.46"}