{"hardnessScaleMohs":"","opticalReflectivity":"","meltingPointFootnote":"","conductivityElectrical":"","standardCondition":"Synthetic","crystalStructure":"Hexagonal","coefficientOfLinealThermalExpansion":"","flammabilityClass":"","molarHeatCapacity":"","numberOfNeutrons":"153","series":"Actinide","vaporPressure":{"pa100k":"","pa100kFootnote":"","pa100Footnote":"","pa100":"","pa1Footnote":"","pa1":"","pa1kFootnote":"","pa1k":"","pa10kFootnote":"","pa10Footnote":"","pa10k":"","pa10":""},"casRegistryNumber":"7440-71-3","oxidationStates":"3","lineSpectra":[{"intensity":"0","airWavelength":"0","spectrum":"TBD"}],"numberOfElectrons":"98","magneticSusceptibility":"","atomicVolume":"","abundanceCrust":"","boilingPoint":"","discoveryYear":"1950","electroNegativity":"1.3","meltingPoint":"900","elasticModulusBulk":"","boilingPointFootnote":"","ionizationPotentialSecond":"","conductivityThermal":"0.1","discoveryLocation":"United States","descr":"Man made radioactive metal.","elasticModulusRigidity":"","discoverer":"G.T.Seaborg, S.G.Tompson, A.Ghiorso, K.Street Jr.","ionicRadius":"0.934","numberOfProtons":"98","abundanceSea":"","atomicMass":"251.0796","molarVolume":"","ionizationPotentialFirst":"6.3","hardnessScaleVickers":"","enthalpyOfAtomization":"","density":"15.1","enthalpyOfFusion":"","opticalRefractiveIndex":"","qualitativeSolubility":"","name":"Californium","specificHeat":"","valenceElectronPotential":"44.5","covalentRadius":"","electronWorkFunction":"","valenceElectrons":[{"5f":"10"},{"7s":"2"}],"atomicMassKnownAccurately":false,"period":"7","symbol":"Cf","nuclidesAndIsotopes":[{"nuclideSymbol":"","decayEnergy":"","decayModes":"","zp":"","halfLife":"","nn":"","nuclearSpin":"","daughterIsotopes":"","isotopicComposition":"","atomicMass":""}],"elasticModulusYoungs":"","atomicMassFootnote":"a","incompatibilities":"","fillingOrbital":[{"5f":"10"}],"atomicRadius":"","enthalpyOfVaporization":"","heatOfVaporization":"","hardnessScaleBrinell":"","group":"","atomicNumber":98,"relativeGasDensity":"","ionizationPotentialThird":"","crossSection":"2100","electroChemicalEquivalent":"3.1226","electronConfiguration":{"3d":"10","5s":"2","4s":"2","5f":"10","6p":"6","3s":"2","4f":"14","5p":"6","2s":"2","4p":"6","1s":"2","3p":"6","2p":"6","5d":"10","7s":"2","4d":"10","6s":"2"},"criticalTemperature":"","heatOfFusion":""}