{"hardnessScaleMohs":"","opticalReflectivity":"","meltingPointFootnote":"","conductivityElectrical":"","standardCondition":"Gas","crystalStructure":"Rhombohedral","coefficientOfLinealThermalExpansion":"","flammabilityClass":"Non-flammable gas (strong oxidizer)","molarHeatCapacity":"33.949","numberOfNeutrons":"18","series":"Halogen","vaporPressure":{"pa10":"-133.7","pa100kFootnote":"","pa100Footnote":"s","pa100":"-120.2","pa1Footnote":"s","pa1":"-145","pa1kFootnote":"s","pa1k":"-103.6","pa10kFootnote":"","pa10Footnote":"s","pa10k":"-76.1","pa100k":"-34.2"},"casRegistryNumber":"7782-50-5","oxidationStates":"±1, 3, 5, 7","lineSpectra":[{"intensity":"600","airWavelength":"4018.5000","spectrum":"Cl III"},{"intensity":"600","airWavelength":"4059.0700","spectrum":"Cl III"},{"intensity":"500","airWavelength":"4104.2300","spectrum":"Cl III"},{"intensity":"500","airWavelength":"4106.8300","spectrum":"Cl III"},{"intensity":"60","airWavelength":"4132.4980","spectrum":"Cl II"},{"intensity":"30","airWavelength":"4372.9300","spectrum":"Cl II"},{"intensity":"500","airWavelength":"4608.2100","spectrum":"Cl III"},{"intensity":"25","airWavelength":"4768.6490","spectrum":"Cl II"},{"intensity":"70","airWavelength":"4781.3180","spectrum":"Cl II"},{"intensity":"600","airWavelength":"4794.5500","spectrum":"Cl II"},{"intensity":"150","airWavelength":"4810.0600","spectrum":"Cl II"},{"intensity":"90","airWavelength":"4819.4710","spectrum":"Cl II"},{"intensity":"400","airWavelength":"4896.7700","spectrum":"Cl II"},{"intensity":"250","airWavelength":"4904.7760","spectrum":"Cl II"},{"intensity":"140","airWavelength":"4917.7310","spectrum":"Cl II"},{"intensity":"60","airWavelength":"4995.4770","spectrum":"Cl II"},{"intensity":"140","airWavelength":"5078.2640","spectrum":"Cl II"},{"intensity":"300","airWavelength":"5217.9400","spectrum":"Cl II"},{"intensity":"130","airWavelength":"5221.3550","spectrum":"Cl II"},{"intensity":"80","airWavelength":"5392.1190","spectrum":"Cl II"},{"intensity":"600","airWavelength":"5423.2300","spectrum":"Cl II"},{"intensity":"60","airWavelength":"5423.5070","spectrum":"Cl II"},{"intensity":"110","airWavelength":"5443.3700","spectrum":"Cl II"},{"intensity":"60","airWavelength":"5444.2050","spectrum":"Cl II"},{"intensity":"30","airWavelength":"5457.0220","spectrum":"Cl II"}],"numberOfElectrons":"17","magneticSusceptibility":"-40.4","atomicVolume":"22.7","abundanceCrust":"1.45x10²","boilingPoint":"-34.04","discoveryYear":"1774","electroNegativity":"3.16","meltingPoint":"-101.5","elasticModulusBulk":"1.1","boilingPointFootnote":"","ionizationPotentialSecond":"23.81","conductivityThermal":"0.000089","discoveryLocation":"Sweden","descr":"Yellow-green halogen gas.","elasticModulusRigidity":"","discoverer":"Carl Wilhelm Scheele","ionicRadius":"1.8","numberOfProtons":"17","abundanceSea":"1.94x10⁴","atomicMass":"35.453","ionizationPotentialFirst":"12.967","molarVolume":"18.7","hardnessScaleVickers":"","enthalpyOfAtomization":"121.8","density":"2.898","enthalpyOfFusion":"3.38","opticalRefractiveIndex":"1.000773","qualitativeSolubility":"soluble in H₂0","name":"Chlorine","specificHeat":"0.479","atomicMassUncertainty":2,"valenceElectronPotential":"-7.96","covalentRadius":"0.99","electronWorkFunction":"","valenceElectrons":[{"3s":"2"},{"3p":"5"}],"atomicMassKnownAccurately":true,"period":"3","symbol":"Cl","nuclidesAndIsotopes":[{"nuclideSymbol":"Cl28","decayEnergy":"","decayModes":"","zp":"","halfLife":"","nn":"11","nuclearSpin":"","daughterIsotopes":"","isotopicComposition":"Syn","atomicMass":"28.029"},{"nuclideSymbol":"Cl29","decayEnergy":"","decayModes":"","zp":"","halfLife":"","nn":"12","nuclearSpin":"","daughterIsotopes":"","isotopicComposition":"Syn","atomicMass":"29.014"},{"nuclideSymbol":"Cl30","decayEnergy":"","decayModes":"","zp":"","halfLife":"","nn":"13","nuclearSpin":"","daughterIsotopes":"","isotopicComposition":"Syn","atomicMass":"30.005"},{"nuclideSymbol":"Cl31","decayEnergy":"5.850","decayModes":"ξ + P","zp":"0.44","halfLife":"150ms","nn":"14","nuclearSpin":"","daughterIsotopes":"P30","isotopicComposition":"Syn","atomicMass":"30.9924"},{"nuclideSymbol":"","decayEnergy":"11.980","decayModes":"ξ","zp":"","halfLife":"150ms","nn":"","nuclearSpin":"","daughterIsotopes":"S31","isotopicComposition":"","atomicMass":""},{"nuclideSymbol":"Cl32","decayEnergy":"5.737","decayModes":"ξ + α","zp":"0.01","halfLife":"298ms","nn":"15","nuclearSpin":"1+","daughterIsotopes":"Si28","isotopicComposition":"Syn","atomicMass":"31.9857"},{"nuclideSymbol":"","decayEnergy":"3.821","decayModes":"ξ + P","zp":"0.007","halfLife":"298ms","nn":"","nuclearSpin":"","daughterIsotopes":"P31","isotopicComposition":"","atomicMass":""},{"nuclideSymbol":"","decayEnergy":"12.685","decayModes":"ξ","zp":"","halfLife":"298ms","nn":"","nuclearSpin":"","daughterIsotopes":"S32","isotopicComposition":"","atomicMass":""},{"nuclideSymbol":"Cl33","decayEnergy":"5.583","decayModes":"ξ","zp":"","halfLife":"2.511s","nn":"16","nuclearSpin":"3\/2+","daughterIsotopes":"S33","isotopicComposition":"Syn","atomicMass":"32.9775"},{"nuclideSymbol":"Cl34","decayEnergy":"5.492","decayModes":"ξ","zp":"","halfLife":"1.5264s","nn":"17","nuclearSpin":"0+","daughterIsotopes":"S34","isotopicComposition":"Syn","atomicMass":"33.9738"},{"nuclideSymbol":"MS","decayEnergy":"5.638","decayModes":"ξ","zp":"55.4","halfLife":"32m","nn":"","nuclearSpin":"3+","daughterIsotopes":"S34","isotopicComposition":"Syn","atomicMass":"0.146MeV"},{"nuclideSymbol":"","decayEnergy":"0.146","decayModes":"IT","zp":"44.6","halfLife":"32m","nn":"","nuclearSpin":"","daughterIsotopes":"","isotopicComposition":"","atomicMass":""},{"nuclideSymbol":"Cl35","decayEnergy":"","decayModes":"","zp":"","halfLife":"Stable","nn":"18","nuclearSpin":"3\/2+","daughterIsotopes":"","isotopicComposition":"75.77","atomicMass":"34.9689"},{"nuclideSymbol":"Cl36","decayEnergy":"0.709","decayModes":"β-","zp":"98.1","halfLife":"301000y","nn":"19","nuclearSpin":"2+","daughterIsotopes":"Ar36","isotopicComposition":"Syn","atomicMass":"35.9683"},{"nuclideSymbol":"","decayEnergy":"1.142","decayModes":"ξ","zp":"1.9","halfLife":"301000y","nn":"","nuclearSpin":"","daughterIsotopes":"S36","isotopicComposition":"","atomicMass":""},{"nuclideSymbol":"Cl37","decayEnergy":"","decayModes":"","zp":"","halfLife":"Stable","nn":"20","nuclearSpin":"3\/2+","daughterIsotopes":"","isotopicComposition":"24.23","atomicMass":"36.9659"},{"nuclideSymbol":"Cl38","decayEnergy":"4.917","decayModes":"β-","zp":"","halfLife":"37.24m","nn":"21","nuclearSpin":"2-","daughterIsotopes":"Ar38","isotopicComposition":"Syn","atomicMass":"37.968"},{"nuclideSymbol":"MS","decayEnergy":"0.671","decayModes":"IT","zp":"","halfLife":"715ms","nn":"","nuclearSpin":"5-","daughterIsotopes":"","isotopicComposition":"Syn","atomicMass":"0.671MeV"},{"nuclideSymbol":"Cl39","decayEnergy":"3.442","decayModes":"β-","zp":"","halfLife":"55.6m","nn":"22","nuclearSpin":"3\/2+","daughterIsotopes":"Ar39","isotopicComposition":"Syn","atomicMass":"38.968"},{"nuclideSymbol":"Cl40","decayEnergy":"7.480","decayModes":"β-","zp":"","halfLife":"1.35m","nn":"23","nuclearSpin":"2-","daughterIsotopes":"Ar40","isotopicComposition":"Syn","atomicMass":"39.9704"},{"nuclideSymbol":"Cl41","decayEnergy":"5.730","decayModes":"β-","zp":"","halfLife":"38.4s","nn":"24","nuclearSpin":"3\/2+, 1\/2+","daughterIsotopes":"Ar41","isotopicComposition":"Syn","atomicMass":"40.9707"},{"nuclideSymbol":"Cl42","decayEnergy":"9.430","decayModes":"β-","zp":"","halfLife":"6.8s","nn":"25","nuclearSpin":"","daughterIsotopes":"Ar42","isotopicComposition":"Syn","atomicMass":"41.973"},{"nuclideSymbol":"Cl43","decayEnergy":"7.950","decayModes":"β-","zp":"","halfLife":"3.3s","nn":"26","nuclearSpin":"","daughterIsotopes":"Ar43","isotopicComposition":"Syn","atomicMass":"42.974"},{"nuclideSymbol":"Cl44","decayEnergy":"3.920","decayModes":"β- + N","zp":"<8","halfLife":"434ms","nn":"27","nuclearSpin":"","daughterIsotopes":"Ar43","isotopicComposition":"Syn","atomicMass":"43.979"},{"nuclideSymbol":"","decayEnergy":"12.270","decayModes":"β-","zp":"","halfLife":"434ms","nn":"","nuclearSpin":"","daughterIsotopes":"Ar44","isotopicComposition":"","atomicMass":""},{"nuclideSymbol":"Cl45","decayEnergy":"5.300","decayModes":"β- + N","zp":"24","halfLife":"400ms","nn":"28","nuclearSpin":"","daughterIsotopes":"Ar44","isotopicComposition":"Syn","atomicMass":"44.98"},{"nuclideSymbol":"","decayEnergy":"10.800","decayModes":"β-","zp":"","halfLife":"400ms","nn":"","nuclearSpin":"","daughterIsotopes":"Ar45","isotopicComposition":"","atomicMass":""},{"nuclideSymbol":"Cl46","decayEnergy":"6.900","decayModes":"β- + N","zp":"24","halfLife":"223ms","nn":"29","nuclearSpin":"0+","daughterIsotopes":"Ar45","isotopicComposition":"Syn","atomicMass":"45.984"},{"nuclideSymbol":"","decayEnergy":"14.900","decayModes":"β-","zp":"","halfLife":"223ms","nn":"","nuclearSpin":"","daughterIsotopes":"Ar46","isotopicComposition":"","atomicMass":""},{"nuclideSymbol":"Cl47","decayEnergy":"10.400","decayModes":"β- + N","zp":"<=3","halfLife":">200ns","nn":"30","nuclearSpin":"","daughterIsotopes":"Ar46","isotopicComposition":"Syn","atomicMass":"46.988"},{"nuclideSymbol":"","decayEnergy":"14.700","decayModes":"β-","zp":"","halfLife":">200ns","nn":"","nuclearSpin":"","daughterIsotopes":"Ar47","isotopicComposition":"","atomicMass":""},{"nuclideSymbol":"Cl48","decayEnergy":"","decayModes":"","zp":"","halfLife":">200ns","nn":"31","nuclearSpin":"","daughterIsotopes":"","isotopicComposition":"Syn","atomicMass":"47.995"},{"nuclideSymbol":"Cl49","decayEnergy":"","decayModes":"","zp":"","halfLife":"=>170ns","nn":"32","nuclearSpin":"","daughterIsotopes":"","isotopicComposition":"Syn","atomicMass":"48.999"},{"nuclideSymbol":"Cl50","decayEnergy":"","decayModes":"","zp":"","halfLife":"","nn":"33","nuclearSpin":"","daughterIsotopes":"","isotopicComposition":"Syn","atomicMass":"50.008"},{"nuclideSymbol":"Cl51","decayEnergy":"","decayModes":"","zp":"","halfLife":">200ns","nn":"34","nuclearSpin":"","daughterIsotopes":"","isotopicComposition":"Syn","atomicMass":"51.01"}],"elasticModulusYoungs":"","atomicMassFootnote":"g m r","incompatibilities":"Reacts explosively or forms explosive componds with many common substances such as acetyle, ether, turpentine, ammonia, fuel gas, hydrogen and finely divided metals.","fillingOrbital":[{"3p":"5"}],"atomicRadius":"0.97","enthalpyOfVaporization":"10.21","heatOfVaporization":"10.2","hardnessScaleBrinell":"","group":"17","atomicNumber":17,"relativeGasDensity":"","ionizationPotentialThird":"39.611","crossSection":"33","electroChemicalEquivalent":"1.3228","electronConfiguration":{"3p":"5","2p":"6","3s":"2","2s":"2","1s":"2"},"criticalTemperature":"143.8","heatOfFusion":"3.203"}