{"hardnessScaleMohs":"","opticalReflectivity":"","meltingPointFootnote":"","conductivityElectrical":"","standardCondition":"Synthetic","crystalStructure":"Hexagonal","coefficientOfLinealThermalExpansion":"","flammabilityClass":"","molarHeatCapacity":"","numberOfNeutrons":"151","series":"Actinide","vaporPressure":{"pa100k":"","pa100kFootnote":"","pa100Footnote":"","pa100":"","pa1Footnote":"","pa1":"","pa1kFootnote":"","pa1k":"","pa10kFootnote":"","pa10Footnote":"","pa10k":"","pa10":""},"casRegistryNumber":"7440-51-9","oxidationStates":"3","lineSpectra":[{"intensity":"0","airWavelength":"0","spectrum":"TBD"}],"numberOfElectrons":"96","magneticSusceptibility":"","atomicVolume":"18.28","abundanceCrust":"","boilingPoint":"3100","discoveryYear":"1944","electroNegativity":"1.3","meltingPoint":"1345","elasticModulusBulk":"","boilingPointFootnote":"approximate","ionizationPotentialSecond":"","conductivityThermal":"0.1","discoveryLocation":"United States","descr":"Man made radioactive metal.","elasticModulusRigidity":"","discoverer":"G.T.Seaborg, R.A.James, A.Ghiorso","ionicRadius":"0.97","numberOfProtons":"96","abundanceSea":"","atomicMass":"247.0704","molarVolume":"18.29","ionizationPotentialFirst":"6.02","hardnessScaleVickers":"","enthalpyOfAtomization":"","density":"13.51","enthalpyOfFusion":"15","opticalRefractiveIndex":"","qualitativeSolubility":"","name":"Curium","specificHeat":"","valenceElectronPotential":"44.5","covalentRadius":"1.8","electronWorkFunction":"","valenceElectrons":[{"5f":"7"},{"6d":"1"},{"7s":"1"}],"atomicMassKnownAccurately":false,"period":"7","symbol":"Cm","nuclidesAndIsotopes":[{"nuclideSymbol":"","decayEnergy":"","decayModes":"","zp":"","halfLife":"","nn":"","nuclearSpin":"","daughterIsotopes":"","isotopicComposition":"","atomicMass":""}],"elasticModulusYoungs":"","atomicMassFootnote":"a","incompatibilities":"","fillingOrbital":[{"5f":"7"}],"atomicRadius":"","enthalpyOfVaporization":"","heatOfVaporization":"","hardnessScaleBrinell":"","group":"","atomicNumber":96,"relativeGasDensity":"","ionizationPotentialThird":"","crossSection":"","electroChemicalEquivalent":"3.0727","electronConfiguration":{"3d":"10","5s":"2","4s":"2","5f":"7","6p":"6","3s":"2","4f":"14","5p":"6","2s":"2","4p":"6","1s":"2","3p":"6","6d":"1","2p":"6","5d":"10","7s":"2","4d":"10","6s":"2"},"criticalTemperature":"","heatOfFusion":""}