{"hardnessScaleMohs":"5","opticalReflectivity":"67","meltingPointFootnote":"","conductivityElectrical":"0.172","standardCondition":"Solid","crystalStructure":"Hexagonal","coefficientOfLinealThermalExpansion":"0.0000138","flammabilityClass":"Non-combustable solid (except as dust)","molarHeatCapacity":"24.81","numberOfNeutrons":"32","series":"Transition Metal","vaporPressure":{"pa10":"1687","pa100kFootnote":"","pa100Footnote":"","pa100":"1892","pa1Footnote":"","pa1":"1517","pa1kFootnote":"","pa1k":"2150","pa10kFootnote":"","pa10Footnote":"","pa10k":"2482","pa100k":"2925"},"casRegistryNumber":"7440-48-4","oxidationStates":"2, 3","lineSpectra":[{"intensity":"130","airWavelength":"4118.7740","spectrum":"Co I"},{"intensity":"200","airWavelength":"4121.3180","spectrum":"Co I"}],"numberOfElectrons":"27","magneticSusceptibility":"Ferromagnetic","atomicVolume":"6.7","abundanceCrust":"2.5x10¹","boilingPoint":"2927","discoveryYear":"1737","electroNegativity":"1.88","meltingPoint":"1495","elasticModulusBulk":"180","boilingPointFootnote":"","ionizationPotentialSecond":"17.06","conductivityThermal":"1","discoveryLocation":"Sweden","descr":"Tough silver-white transition metal.","elasticModulusRigidity":"75","discoverer":"George Brandt","ionicRadius":"0.745","numberOfProtons":"27","abundanceSea":"2x10⁻⁵","atomicMass":"58.933200","ionizationPotentialFirst":"7.86","molarVolume":"6.61","hardnessScaleVickers":"1043","enthalpyOfAtomization":"26.8","density":"8.86","enthalpyOfFusion":"15.23","opticalRefractiveIndex":"","qualitativeSolubility":"soluble in diluted acid","name":"Cobalt","specificHeat":"0.421","atomicMassUncertainty":9,"valenceElectronPotential":"38.7","covalentRadius":"1.16","electronWorkFunction":"5","valenceElectrons":[{"3d":"7"},{"4s":"2"}],"atomicMassKnownAccurately":true,"period":"4","symbol":"Co","nuclidesAndIsotopes":[{"nuclideSymbol":"Co48","decayEnergy":"","decayModes":"","zp":"","halfLife":"","nn":"21","nuclearSpin":"","daughterIsotopes":"","isotopicComposition":"Syn","atomicMass":"48.002"},{"nuclideSymbol":"Co49","decayEnergy":"","decayModes":"","zp":"","halfLife":"\n","nn":"22","nuclearSpin":"","daughterIsotopes":"","isotopicComposition":"Syn","atomicMass":"48.99"},{"nuclideSymbol":"Co50","decayEnergy":"13.130","decayModes":"ξ + P","zp":">42","halfLife":"44ms","nn":"23","nuclearSpin":"6+","daughterIsotopes":"Mn49","isotopicComposition":"Syn","atomicMass":"49.982"},{"nuclideSymbol":"","decayEnergy":"17.280","decayModes":"ξ","zp":"","halfLife":"44ms","nn":"","nuclearSpin":"","daughterIsotopes":"Fe50","isotopicComposition":"","atomicMass":""},{"nuclideSymbol":"Co51","decayEnergy":"","decayModes":"","zp":"","halfLife":"","nn":"24","nuclearSpin":"7\/2-","daughterIsotopes":"","isotopicComposition":"Syn","atomicMass":"50.971"},{"nuclideSymbol":"Co52","decayEnergy":"14.410","decayModes":"ξ","zp":"","halfLife":"18ms","nn":"25","nuclearSpin":"","daughterIsotopes":"Fe52","isotopicComposition":"Syn","atomicMass":"51.9636"},{"nuclideSymbol":"","decayEnergy":"6.630","decayModes":"ξ + P","zp":"","halfLife":"18ms","nn":"","nuclearSpin":"","daughterIsotopes":"Mn51","isotopicComposition":"","atomicMass":""},{"nuclideSymbol":"Co53","decayEnergy":"8.302","decayModes":"ξ","zp":"","halfLife":"240ms","nn":"26","nuclearSpin":"7\/2-","daughterIsotopes":"Fe53","isotopicComposition":"Syn","atomicMass":"52.9542"},{"nuclideSymbol":"MS","decayEnergy":"11.492","decayModes":"ξ","zp":"~98.5","halfLife":"247ms","nn":"","nuclearSpin":"19\/2-","daughterIsotopes":"Fe53","isotopicComposition":"Syn","atomicMass":"3.190MeV"},{"nuclideSymbol":"","decayEnergy":"1.591","decayModes":"P","zp":"~1.5","halfLife":"247ms","nn":"","nuclearSpin":"","daughterIsotopes":"Fe52","isotopicComposition":"","atomicMass":""},{"nuclideSymbol":"Co54","decayEnergy":"8.243","decayModes":"ξ","zp":"","halfLife":"193.23ms","nn":"27","nuclearSpin":"0+","daughterIsotopes":"Fe54","isotopicComposition":"Syn","atomicMass":"53.9485"},{"nuclideSymbol":"MS","decayEnergy":"8.442","decayModes":"ξ","zp":"","halfLife":"1.48m","nn":"","nuclearSpin":"7+","daughterIsotopes":"Fe54","isotopicComposition":"Syn","atomicMass":"0.199MeV"},{"nuclideSymbol":"Co55","decayEnergy":"3.451","decayModes":"ξ","zp":"","halfLife":"17.53h","nn":"28","nuclearSpin":"7\/2-","daughterIsotopes":"Fe55","isotopicComposition":"Syn","atomicMass":"54.942"},{"nuclideSymbol":"Co56","decayEnergy":"4.566","decayModes":"ξ","zp":"","halfLife":"77.27d","nn":"29","nuclearSpin":"4+","daughterIsotopes":"Fe56","isotopicComposition":"Syn","atomicMass":"55.9398"},{"nuclideSymbol":"Co57","decayEnergy":"0.836","decayModes":"ξ","zp":"","halfLife":"271.79d","nn":"30","nuclearSpin":"7\/2-","daughterIsotopes":"Fe57","isotopicComposition":"Syn","atomicMass":"56.9363"},{"nuclideSymbol":"Co58","decayEnergy":"2.307","decayModes":"ξ","zp":"","halfLife":"70.86d","nn":"31","nuclearSpin":"2+","daughterIsotopes":"Fe58","isotopicComposition":"Syn","atomicMass":"57.9358"},{"nuclideSymbol":"MS","decayEnergy":"0.025","decayModes":"IT","zp":"","halfLife":"9.04h","nn":"","nuclearSpin":"5+","daughterIsotopes":"","isotopicComposition":"Syn","atomicMass":"0.024MeV"},{"nuclideSymbol":"Co59","decayEnergy":"","decayModes":"","zp":"","halfLife":"Stable","nn":"32","nuclearSpin":"7\/2-","daughterIsotopes":"","isotopicComposition":"100","atomicMass":"58.9332"},{"nuclideSymbol":"Co60","decayEnergy":"2.824","decayModes":"β-","zp":"","halfLife":"5.2714y","nn":"33","nuclearSpin":"5+","daughterIsotopes":"Ni60","isotopicComposition":"Syn","atomicMass":"59.9338"},{"nuclideSymbol":"MS","decayEnergy":"0.059","decayModes":"IT","zp":"99.76","halfLife":"10.467m","nn":"","nuclearSpin":"2+","daughterIsotopes":"","isotopicComposition":"Syn","atomicMass":"0.059MeV"},{"nuclideSymbol":"","decayEnergy":"2.883","decayModes":"β-","zp":"0.24","halfLife":"10.467m","nn":"","nuclearSpin":"","daughterIsotopes":"Ni60","isotopicComposition":"","atomicMass":""},{"nuclideSymbol":"Co61","decayEnergy":"1.322","decayModes":"β-","zp":"","halfLife":"1.650h","nn":"34","nuclearSpin":"7\/2-","daughterIsotopes":"Ni61","isotopicComposition":"Syn","atomicMass":"60.9325"},{"nuclideSymbol":"Co62","decayEnergy":"5.315","decayModes":"β-","zp":"","halfLife":"1.5m","nn":"35","nuclearSpin":"2+","daughterIsotopes":"Ni62","isotopicComposition":"Syn","atomicMass":"61.9341"},{"nuclideSymbol":"MS","decayEnergy":"5.337","decayModes":"β-","zp":">99","halfLife":"13.91m","nn":"","nuclearSpin":"5+","daughterIsotopes":"Ni62","isotopicComposition":"Syn","atomicMass":"0.022MeV"},{"nuclideSymbol":"","decayEnergy":"0.022","decayModes":"IT","zp":"<1","halfLife":"13.91m","nn":"","nuclearSpin":"","daughterIsotopes":"","isotopicComposition":"","atomicMass":""},{"nuclideSymbol":"Co63","decayEnergy":"3.672","decayModes":"β-","zp":"","halfLife":"27.4s","nn":"36","nuclearSpin":"7\/2-","daughterIsotopes":"Ni63","isotopicComposition":"Syn","atomicMass":"62.9336"},{"nuclideSymbol":"Co64","decayEnergy":"7.307","decayModes":"β-","zp":"","halfLife":"0.3s","nn":"37","nuclearSpin":"1+","daughterIsotopes":"Ni64","isotopicComposition":"Syn","atomicMass":"63.9358"},{"nuclideSymbol":"Co65","decayEnergy":"5.958","decayModes":"β-","zp":"","halfLife":"1.2s","nn":"38","nuclearSpin":"7\/2-","daughterIsotopes":"Ni65","isotopicComposition":"Syn","atomicMass":"64.9365"},{"nuclideSymbol":"Co66","decayEnergy":"10.000","decayModes":"β-","zp":"","halfLife":"0.233s","nn":"39","nuclearSpin":"3+","daughterIsotopes":"Ni66","isotopicComposition":"Syn","atomicMass":"65.94"},{"nuclideSymbol":"Co67","decayEnergy":"8.400","decayModes":"β-","zp":"","halfLife":"0.42s","nn":"40","nuclearSpin":"7\/2-","daughterIsotopes":"Ni67","isotopicComposition":"Syn","atomicMass":"66.941"},{"nuclideSymbol":"Co68","decayEnergy":"11.700","decayModes":"β-","zp":"","halfLife":"0.18s","nn":"41","nuclearSpin":"","daughterIsotopes":"Ni68","isotopicComposition":"Syn","atomicMass":"67.944"},{"nuclideSymbol":"Co69","decayEnergy":"9.300","decayModes":"β-","zp":"","halfLife":"0.27s","nn":"42","nuclearSpin":"","daughterIsotopes":"Ni69","isotopicComposition":"Syn","atomicMass":"68.945"},{"nuclideSymbol":"Co70","decayEnergy":"12.700","decayModes":"β-","zp":"","halfLife":"150ms","nn":"43","nuclearSpin":"","daughterIsotopes":"Ni70","isotopicComposition":"Syn","atomicMass":"69.95"},{"nuclideSymbol":"Co71","decayEnergy":"10.900","decayModes":"β-","zp":"","halfLife":"210ms","nn":"44","nuclearSpin":"7\/2-","daughterIsotopes":"Ni71","isotopicComposition":"Syn","atomicMass":"70.952"},{"nuclideSymbol":"Co72","decayEnergy":"","decayModes":"β-","zp":"","halfLife":"90ms","nn":"45","nuclearSpin":"","daughterIsotopes":"","isotopicComposition":"Syn","atomicMass":"71.956"},{"nuclideSymbol":"Co73","decayEnergy":"","decayModes":"β-","zp":"","halfLife":"","nn":"46","nuclearSpin":"","daughterIsotopes":"","isotopicComposition":"Syn","atomicMass":"72"}],"elasticModulusYoungs":"209","atomicMassFootnote":"","incompatibilities":"Strong oxidizers, ammonium nitrate","fillingOrbital":[{"3d":"7"}],"atomicRadius":"1.67","enthalpyOfVaporization":"382.4","heatOfVaporization":"376.5","hardnessScaleBrinell":"700","group":"9","atomicNumber":27,"relativeGasDensity":"","ionizationPotentialThird":"33.5","crossSection":"37.5","electroChemicalEquivalent":"1.0994","electronConfiguration":{"3p":"6","4s":"2","2p":"6","3s":"2","2s":"2","3d":"7","1s":"2"},"criticalTemperature":"","heatOfFusion":"16.19"}