{"hardnessScaleMohs":"8.5","opticalReflectivity":"","meltingPointFootnote":"","conductivityElectrical":"0.0774","standardCondition":"Solid","crystalStructure":"CubicBody","coefficientOfLinealThermalExpansion":"0.0000062","flammabilityClass":"Non-combustible solid (except as dust)","molarHeatCapacity":"23.35","numberOfNeutrons":"28","series":"Transition Metal","vaporPressure":{"pa10":"1534","pa100kFootnote":"","pa100Footnote":"s","pa100":"1718","pa1Footnote":"s","pa1":"1383","pa1kFootnote":"","pa1k":"1950","pa10kFootnote":"","pa10Footnote":"s","pa10k":"2257","pa100k":"2669"},"casRegistryNumber":"7440-47-3","oxidationStates":"6, 3, 2","lineSpectra":[{"intensity":"8","airWavelength":"4001.4430","spectrum":"Cr I"},{"intensity":"10","airWavelength":"4039.0980","spectrum":"Cr I"},{"intensity":"8","airWavelength":"4048.7840","spectrum":"Cr I"},{"intensity":"7","airWavelength":"4126.5130","spectrum":"Cr I"},{"intensity":"7","airWavelength":"4163.6270","spectrum":"Cr I"},{"intensity":"8","airWavelength":"4174.8080","spectrum":"Cr I"},{"intensity":"8","airWavelength":"4179.2700","spectrum":"Cr I"},{"intensity":"1000","airWavelength":"4254.3310","spectrum":"Cr I"},{"intensity":"800","airWavelength":"4274.8060","spectrum":"Cr I"},{"intensity":"500","airWavelength":"4289.7330","spectrum":"Cr I"},{"intensity":"40","airWavelength":"4337.5660","spectrum":"Cr I"},{"intensity":"60","airWavelength":"4339.4500","spectrum":"Cr I"},{"intensity":"20","airWavelength":"4339.7400","spectrum":"Cr I"},{"intensity":"90","airWavelength":"4344.5100","spectrum":"Cr I"},{"intensity":"20","airWavelength":"4351.0550","spectrum":"Cr I"},{"intensity":"120","airWavelength":"4351.7700","spectrum":"Cr I"},{"intensity":"30","airWavelength":"4359.6470","spectrum":"Cr I"},{"intensity":"25","airWavelength":"4371.2790","spectrum":"Cr I"},{"intensity":"25","airWavelength":"4384.9740","spectrum":"Cr I"},{"intensity":"30","airWavelength":"4496.8500","spectrum":"Cr I"},{"intensity":"20","airWavelength":"4526.4580","spectrum":"Cr I"},{"intensity":"20","airWavelength":"4530.7200","spectrum":"Cr I"},{"intensity":"12","airWavelength":"4535.7140","spectrum":"Cr I"},{"intensity":"12","airWavelength":"4540.5000","spectrum":"Cr I"},{"intensity":"12","airWavelength":"4540.7150","spectrum":"Cr I"},{"intensity":"7","airWavelength":"4544.6070","spectrum":"Cr I"},{"intensity":"30","airWavelength":"4545.9460","spectrum":"Cr I"},{"intensity":"20","airWavelength":"4580.0450","spectrum":"Cr I"},{"intensity":"20","airWavelength":"4591.4050","spectrum":"Cr I"},{"intensity":"25","airWavelength":"4600.7450","spectrum":"Cr I"},{"intensity":"12","airWavelength":"4613.3600","spectrum":"Cr I"},{"intensity":"30","airWavelength":"4616.1200","spectrum":"Cr I"},{"intensity":"30","airWavelength":"4626.1810","spectrum":"Cr I"},{"intensity":"80","airWavelength":"4646.1510","spectrum":"Cr I"},{"intensity":"30","airWavelength":"4651.2850","spectrum":"Cr I"},{"intensity":"40","airWavelength":"4652.1550","spectrum":"Cr I"},{"intensity":"12","airWavelength":"4698.4600","spectrum":"Cr I"},{"intensity":"10","airWavelength":"4708.0200","spectrum":"Cr I"},{"intensity":"12","airWavelength":"4718.4300","spectrum":"Cr I"},{"intensity":"7","airWavelength":"4737.3300","spectrum":"Cr I"},{"intensity":"15","airWavelength":"4756.0900","spectrum":"Cr I"},{"intensity":"10","airWavelength":"4789.3240","spectrum":"Cr I"},{"intensity":"7","airWavelength":"4870.7900","spectrum":"Cr I"},{"intensity":"6","airWavelength":"4887.0130","spectrum":"Cr I"},{"intensity":"13","airWavelength":"4922.2760","spectrum":"Cr I"},{"intensity":"250","airWavelength":"5204.5050","spectrum":"Cr I"},{"intensity":"400","airWavelength":"5206.0210","spectrum":"Cr I"},{"intensity":"600","airWavelength":"5208.4150","spectrum":"Cr I"},{"intensity":"14","airWavelength":"5247.5800","spectrum":"Cr I"},{"intensity":"25","airWavelength":"5264.1600","spectrum":"Cr I"},{"intensity":"9","airWavelength":"5265.7300","spectrum":"Cr I"},{"intensity":"15","airWavelength":"5296.6900","spectrum":"Cr I"},{"intensity":"30","airWavelength":"5298.2900","spectrum":"Cr I"},{"intensity":"15","airWavelength":"5328.3600","spectrum":"Cr I"},{"intensity":"40","airWavelength":"5345.7700","spectrum":"Cr I"},{"intensity":"20","airWavelength":"5348.3000","spectrum":"Cr I"},{"intensity":"70","airWavelength":"5409.7800","spectrum":"Cr I"},{"intensity":"9","airWavelength":"5791.0000","spectrum":"Cr I"}],"numberOfElectrons":"24","magneticSusceptibility":"+167","atomicVolume":"7.23","abundanceCrust":"1.02x10²","boilingPoint":"2671","discoveryYear":"1797","electroNegativity":"1.66","meltingPoint":"1907","elasticModulusBulk":"160","boilingPointFootnote":"","ionizationPotentialSecond":"16.5","conductivityThermal":"0.937","discoveryLocation":"France","descr":"Hard brittle gray transition metal.","elasticModulusRigidity":"115","discoverer":"Louis Vauquelin","ionicRadius":"0.52","numberOfProtons":"24","abundanceSea":"3x10⁻⁴","atomicMass":"51.9961","ionizationPotentialFirst":"6.766","molarVolume":"7.78","hardnessScaleVickers":"1060","enthalpyOfAtomization":"397.5","density":"7.15","enthalpyOfFusion":"15.31","opticalRefractiveIndex":"","qualitativeSolubility":"reacts with diluted acid","name":"Chromium","specificHeat":"0.449","atomicMassUncertainty":6,"valenceElectronPotential":"170","covalentRadius":"1.18","electronWorkFunction":"4.5","valenceElectrons":[{"3d":"5"},{"4s":"1"}],"atomicMassKnownAccurately":true,"period":"4","symbol":"Cr","nuclidesAndIsotopes":[{"nuclideSymbol":"Cr42","decayEnergy":"","decayModes":"","zp":"","halfLife":"","nn":"18","nuclearSpin":"0+","daughterIsotopes":"","isotopicComposition":"Syn","atomicMass":"42.006"},{"nuclideSymbol":"Cr43","decayEnergy":"15.890","decayModes":"ξ","zp":"","halfLife":"21ms","nn":"19","nuclearSpin":"3\/2+","daughterIsotopes":"V43","isotopicComposition":"Syn","atomicMass":"42.9977"},{"nuclideSymbol":"MS","decayEnergy":"15.700","decayModes":"ξ + α","zp":"","halfLife":"21ms","nn":"","nuclearSpin":"3\/2+","daughterIsotopes":"Sc39","isotopicComposition":"Syn","atomicMass":""},{"nuclideSymbol":"MS","decayEnergy":"11.930","decayModes":"ξ + P","zp":"","halfLife":"21ms","nn":"","nuclearSpin":"","daughterIsotopes":"Sc41","isotopicComposition":"Syn","atomicMass":"0.000MeV"},{"nuclideSymbol":"Cr44","decayEnergy":"8.500","decayModes":"ξ + P","zp":">7","halfLife":"53ms","nn":"20","nuclearSpin":"0+","daughterIsotopes":"Ti43","isotopicComposition":"Syn","atomicMass":"43.985"},{"nuclideSymbol":"","decayEnergy":"10.310","decayModes":"ξ","zp":"","halfLife":"53ms","nn":"","nuclearSpin":"","daughterIsotopes":"V44","isotopicComposition":"","atomicMass":""},{"nuclideSymbol":"Cr45","decayEnergy":"10.850","decayModes":"ξ + P","zp":">27","halfLife":"50ms","nn":"21","nuclearSpin":"","daughterIsotopes":"Ti44","isotopicComposition":"Syn","atomicMass":"44.979"},{"nuclideSymbol":"","decayEnergy":"12.460","decayModes":"ξ","zp":"","halfLife":"50ms","nn":"","nuclearSpin":"","daughterIsotopes":"V45","isotopicComposition":"","atomicMass":""},{"nuclideSymbol":"Cr46","decayEnergy":"7.603","decayModes":"ξ","zp":"","halfLife":"0.26s","nn":"22","nuclearSpin":"0+","daughterIsotopes":"V46","isotopicComposition":"Syn","atomicMass":"45.9684"},{"nuclideSymbol":"Cr47","decayEnergy":"7.451","decayModes":"ξ","zp":"","halfLife":"500ms","nn":"23","nuclearSpin":"3\/2-","daughterIsotopes":"V47","isotopicComposition":"Syn","atomicMass":"46.9629"},{"nuclideSymbol":"Cr48","decayEnergy":"1.659","decayModes":"ξ","zp":"","halfLife":"21.56h","nn":"24","nuclearSpin":"0+","daughterIsotopes":"V48","isotopicComposition":"Syn","atomicMass":"47.954"},{"nuclideSymbol":"Cr49","decayEnergy":"2.631","decayModes":"ξ","zp":"","halfLife":"42.3m","nn":"25","nuclearSpin":"5\/2-","daughterIsotopes":"V49","isotopicComposition":"Syn","atomicMass":"48.9513"},{"nuclideSymbol":"Cr50","decayEnergy":"","decayModes":"ξ","zp":"","halfLife":">1.8E¹⁷y","nn":"26","nuclearSpin":"0+","daughterIsotopes":"Ti50","isotopicComposition":"4.345","atomicMass":"49.9461"},{"nuclideSymbol":"Cr51","decayEnergy":"0.753","decayModes":"ξ","zp":"","halfLife":"27.7025d","nn":"27","nuclearSpin":"7\/2-","daughterIsotopes":"V51","isotopicComposition":"Syn","atomicMass":"50.9448"},{"nuclideSymbol":"Cr52","decayEnergy":"","decayModes":"","zp":"","halfLife":"Stable","nn":"28","nuclearSpin":"0+","daughterIsotopes":"","isotopicComposition":"83.789","atomicMass":"51.9405"},{"nuclideSymbol":"Cr53","decayEnergy":"","decayModes":"","zp":"","halfLife":"Stable","nn":"29","nuclearSpin":"3\/2-","daughterIsotopes":"","isotopicComposition":"9.501","atomicMass":"52.9407"},{"nuclideSymbol":"Cr54","decayEnergy":"","decayModes":"","zp":"","halfLife":"Stable","nn":"30","nuclearSpin":"0+","daughterIsotopes":"","isotopicComposition":"2.365","atomicMass":"53.9389"},{"nuclideSymbol":"Cr55","decayEnergy":"2.603","decayModes":"β-","zp":"","halfLife":"3.497m","nn":"31","nuclearSpin":"3\/2-","daughterIsotopes":"Mn55","isotopicComposition":"Syn","atomicMass":"54.9408"},{"nuclideSymbol":"Cr56","decayEnergy":"1.617","decayModes":"β-","zp":"","halfLife":"5.94m","nn":"32","nuclearSpin":"0+","daughterIsotopes":"Mn56","isotopicComposition":"Syn","atomicMass":"55.9406"},{"nuclideSymbol":"Cr57","decayEnergy":"5.090","decayModes":"β-","zp":"","halfLife":"21.1s","nn":"33","nuclearSpin":"5\/2, 7\/2-, 3\/2--","daughterIsotopes":"Mn57","isotopicComposition":"Syn","atomicMass":"56.9438"},{"nuclideSymbol":"Cr58","decayEnergy":"3.970","decayModes":"β-","zp":"","halfLife":"7s","nn":"34","nuclearSpin":"0+","daughterIsotopes":"Mn58","isotopicComposition":"Syn","atomicMass":"57.944"},{"nuclideSymbol":"Cr59","decayEnergy":"7.700","decayModes":"β-","zp":"","halfLife":"0.74s","nn":"35","nuclearSpin":"","daughterIsotopes":"Mn59","isotopicComposition":"Syn","atomicMass":"58.949"},{"nuclideSymbol":"Cr60","decayEnergy":"5.900","decayModes":"β-","zp":"","halfLife":"0.57s","nn":"36","nuclearSpin":"0+","daughterIsotopes":"Mn60","isotopicComposition":"Syn","atomicMass":"59.95"},{"nuclideSymbol":"Cr61","decayEnergy":"8.800","decayModes":"β-","zp":"","halfLife":"270ms","nn":"37","nuclearSpin":"5\/2-","daughterIsotopes":"Mn61","isotopicComposition":"Syn","atomicMass":"60.954"},{"nuclideSymbol":"Cr62","decayEnergy":"","decayModes":"","zp":"","halfLife":"190ms","nn":"38","nuclearSpin":"0+","daughterIsotopes":"","isotopicComposition":"Syn","atomicMass":"61.956"},{"nuclideSymbol":"Cr63","decayEnergy":"","decayModes":"","zp":"","halfLife":"110ms","nn":"39","nuclearSpin":"1\/2-","daughterIsotopes":"","isotopicComposition":"Syn","atomicMass":"62.962"},{"nuclideSymbol":"Cr64","decayEnergy":"","decayModes":"","zp":"","halfLife":">1us","nn":"40","nuclearSpin":"0+","daughterIsotopes":"","isotopicComposition":"Syn","atomicMass":"63.964"},{"nuclideSymbol":"Cr65","decayEnergy":"","decayModes":"β-","zp":"","halfLife":"","nn":"41","nuclearSpin":"1\/2-","daughterIsotopes":"","isotopicComposition":"Syn","atomicMass":"64.97"},{"nuclideSymbol":"Cr66","decayEnergy":"","decayModes":"β-","zp":"","halfLife":"","nn":"42","nuclearSpin":"0+","daughterIsotopes":"","isotopicComposition":"Syn","atomicMass":""},{"nuclideSymbol":"Cr67","decayEnergy":"","decayModes":"β-","zp":"","halfLife":"","nn":"43","nuclearSpin":"1\/2-","daughterIsotopes":"","isotopicComposition":"Syn","atomicMass":""}],"elasticModulusYoungs":"279","atomicMassFootnote":"","incompatibilities":"Strong oxidizers (such as hydrogen peroxide), alkalis.","fillingOrbital":[{"3d":"5"}],"atomicRadius":"1.85","enthalpyOfVaporization":"348.8","heatOfVaporization":"344.3","hardnessScaleBrinell":"1120","group":"6","atomicNumber":24,"relativeGasDensity":"","ionizationPotentialThird":"30.96","crossSection":"3.1","electroChemicalEquivalent":"0.32333","electronConfiguration":{"3p":"6","4s":"1","2p":"6","3s":"2","2s":"2","3d":"5","1s":"2"},"criticalTemperature":"","heatOfFusion":"16.9"}