{"hardnessScaleMohs":"0.2","opticalReflectivity":"","meltingPointFootnote":"","conductivityElectrical":"0.0489","standardCondition":"Liquid","crystalStructure":"CubicBody","coefficientOfLinealThermalExpansion":"0.000097","flammabilityClass":"","molarHeatCapacity":"32.210","numberOfNeutrons":"78","series":"Alkali Metal","vaporPressure":{"pa100k":"667.0","pa100kFootnote":"","pa100Footnote":"","pa100":"260.9","pa1Footnote":"","pa1":"144.5","pa1kFootnote":"","pa1k":"350.0","pa10kFootnote":"","pa10Footnote":"","pa10k":"477.1","pa10":"195.6"},"casRegistryNumber":"7440-46-2","oxidationStates":"1","lineSpectra":[{"intensity":"0","airWavelength":"0","spectrum":"TBD"}],"numberOfElectrons":"55","magneticSusceptibility":"+29","atomicVolume":"71.07","abundanceCrust":"3","boilingPoint":"671","discoveryYear":"1860","electroNegativity":"0.79","meltingPoint":"28.5","elasticModulusBulk":"1.6","boilingPointFootnote":"","ionizationPotentialSecond":"25.1","conductivityThermal":"0.359","discoveryLocation":"Germany","descr":"Soft light silvery-white alkali metal.","elasticModulusRigidity":"","discoverer":"Robert Bunsen, Gustov Kirchoff","ionicRadius":"1.67","numberOfProtons":"55","abundanceSea":"3x10⁻⁴","atomicMass":"132.90545","molarVolume":"70.73","ionizationPotentialFirst":"3.894","hardnessScaleVickers":"","enthalpyOfAtomization":"78.2","density":"1.93","enthalpyOfFusion":"2.1","opticalRefractiveIndex":"","qualitativeSolubility":"reacts with H₂0","name":"Cesium","specificHeat":"0.242","atomicMassUncertainty":2,"valenceElectronPotential":"","covalentRadius":"2.35","electronWorkFunction":"2.14","valenceElectrons":[{"6s":"1"}],"atomicMassKnownAccurately":true,"period":"6","symbol":"Cs","nuclidesAndIsotopes":[{"nuclideSymbol":"","decayEnergy":"","decayModes":"","zp":"","halfLife":"","nn":"","nuclearSpin":"","daughterIsotopes":"","isotopicComposition":"","atomicMass":""}],"elasticModulusYoungs":"1.7","atomicMassFootnote":"","incompatibilities":"","fillingOrbital":[{"6s":"1"}],"atomicRadius":"3.34","enthalpyOfVaporization":"65.9","heatOfVaporization":"67.7","hardnessScaleBrinell":"0.14","group":"1","atomicNumber":55,"relativeGasDensity":"","ionizationPotentialThird":"","crossSection":"30","electroChemicalEquivalent":"4.9587","electronConfiguration":{"5s":"2","3d":"10","4s":"2","3s":"2","5p":"6","2s":"2","4p":"6","1s":"2","3p":"6","2p":"6","4d":"10","6s":"1"},"criticalTemperature":"1665","heatOfFusion":"2.092"}