{"hardnessScaleMohs":"3","opticalReflectivity":"90","meltingPointFootnote":"","conductivityElectrical":"0.596","standardCondition":"Solid","crystalStructure":"CubicFace","coefficientOfLinealThermalExpansion":"0.0000166","flammabilityClass":"Non-combustable solid (except as dust)","molarHeatCapacity":"24.440","numberOfNeutrons":"35","series":"Transition Metal","vaporPressure":{"pa10":"1388","pa100kFootnote":"","pa100Footnote":"","pa100":"1577","pa1Footnote":"","pa1":"1236","pa1kFootnote":"","pa1k":"1816","pa10kFootnote":"","pa10Footnote":"","pa10k":"2131","pa100k":"2563"},"casRegistryNumber":"7440-50-8","oxidationStates":"2, 1","lineSpectra":[{"intensity":"200","airWavelength":"4062.6400","spectrum":"Cu I"},{"intensity":"200","airWavelength":"4651.1200","spectrum":"Cu I"},{"intensity":"700","airWavelength":"4909.7340","spectrum":"Cu II"},{"intensity":"600","airWavelength":"4931.6980","spectrum":"Cu II"},{"intensity":"500","airWavelength":"4953.7240","spectrum":"Cu II"},{"intensity":"600","airWavelength":"5051.7930","spectrum":"Cu II"},{"intensity":"150","airWavelength":"5105.5400","spectrum":"Cu I"},{"intensity":"200","airWavelength":"5153.2400","spectrum":"Cu I"},{"intensity":"250","airWavelength":"5218.2000","spectrum":"Cu I"},{"intensity":"150","airWavelength":"5292.5200","spectrum":"Cu I"},{"intensity":"150","airWavelength":"5700.2400","spectrum":"Cu I"},{"intensity":"150","airWavelength":"5782.1300","spectrum":"Cu I"},{"intensity":"400","airWavelength":"6000.1200","spectrum":"Cu II"},{"intensity":"400","airWavelength":"6150.3840","spectrum":"Cu II"},{"intensity":"500","airWavelength":"6154.2220","spectrum":"Cu II"},{"intensity":"500","airWavelength":"6216.9390","spectrum":"Cu II"},{"intensity":"500","airWavelength":"6219.8440","spectrum":"Cu II"},{"intensity":"700","airWavelength":"6273.3490","spectrum":"Cu II"},{"intensity":"600","airWavelength":"6301.0090","spectrum":"Cu II"},{"intensity":"500","airWavelength":"6377.8400","spectrum":"Cu II"},{"intensity":"600","airWavelength":"6423.8840","spectrum":"Cu II"},{"intensity":"500","airWavelength":"6448.5590","spectrum":"Cu II"},{"intensity":"600","airWavelength":"6470.1680","spectrum":"Cu II"},{"intensity":"500","airWavelength":"6481.4370","spectrum":"Cu II"},{"intensity":"500","airWavelength":"6624.2920","spectrum":"Cu II"},{"intensity":"500","airWavelength":"6641.3960","spectrum":"Cu II"}],"numberOfElectrons":"29","magneticSusceptibility":"-5.46","atomicVolume":"7.1","abundanceCrust":"6.0x10¹","boilingPoint":"2562","discoveryYear":"Known to the ancients","electroNegativity":"1.9","meltingPoint":"1084.62","elasticModulusBulk":"140","boilingPointFootnote":"","ionizationPotentialSecond":"20.292","conductivityThermal":"4.01","discoveryLocation":"?","descr":"Redish orange transition metal.","elasticModulusRigidity":"48","discoverer":"Known to the ancients","ionicRadius":"0.73","numberOfProtons":"29","abundanceSea":"2.5x10⁻⁴","atomicMass":"63.546","ionizationPotentialFirst":"7.736","molarVolume":"7.11","hardnessScaleVickers":"369","enthalpyOfAtomization":"338.9","density":"8.96","enthalpyOfFusion":"13.01","opticalRefractiveIndex":"","qualitativeSolubility":"soluble in diluted acid","name":"Copper","specificHeat":"0.385","atomicMassUncertainty":3,"valenceElectronPotential":"34","covalentRadius":"1.17","electronWorkFunction":"4.65","valenceElectrons":[{"3d":"10"},{"4s":"1"}],"atomicMassKnownAccurately":true,"period":"4","symbol":"Cu","nuclidesAndIsotopes":[{"nuclideSymbol":"Cu52","decayEnergy":"","decayModes":"","zp":"","halfLife":"","nn":"23","nuclearSpin":"","daughterIsotopes":"","isotopicComposition":"Syn","atomicMass":"51.997"},{"nuclideSymbol":"Cu53","decayEnergy":"","decayModes":"","zp":"","halfLife":"","nn":"24","nuclearSpin":"","daughterIsotopes":"","isotopicComposition":"Syn","atomicMass":"52.986"},{"nuclideSymbol":"Cu54","decayEnergy":"","decayModes":"","zp":"","halfLife":"","nn":"25","nuclearSpin":"","daughterIsotopes":"","isotopicComposition":"Syn","atomicMass":"53.977"},{"nuclideSymbol":"Cu55","decayEnergy":"13.700","decayModes":"ξ","zp":"","halfLife":">200ns","nn":"26","nuclearSpin":"","daughterIsotopes":"Ni55","isotopicComposition":"Syn","atomicMass":"54.966"},{"nuclideSymbol":"Cu56","decayEnergy":"15.300","decayModes":"ξ","zp":"","halfLife":">200ns","nn":"27","nuclearSpin":"","daughterIsotopes":"Ni56","isotopicComposition":"Syn","atomicMass":"55.959"},{"nuclideSymbol":"","decayEnergy":"8.130","decayModes":"ξ + P","zp":"","halfLife":">200ns","nn":"","nuclearSpin":"","daughterIsotopes":"Co55","isotopicComposition":"","atomicMass":""},{"nuclideSymbol":"Cu57","decayEnergy":"8.770","decayModes":"ξ","zp":"","halfLife":"199.4ms","nn":"28","nuclearSpin":"3\/2-","daughterIsotopes":"Ni57","isotopicComposition":"Syn","atomicMass":"56.9492"},{"nuclideSymbol":"Cu58","decayEnergy":"8.563","decayModes":"ξ","zp":"","halfLife":"3.204s","nn":"29","nuclearSpin":"1+","daughterIsotopes":"Ni58","isotopicComposition":"Syn","atomicMass":"57.9445"},{"nuclideSymbol":"Cu59","decayEnergy":"4.800","decayModes":"ξ","zp":"","halfLife":"81.5s","nn":"30","nuclearSpin":"3\/2-","daughterIsotopes":"Ni59","isotopicComposition":"Syn","atomicMass":"58.9395"},{"nuclideSymbol":"Cu60","decayEnergy":"6.127","decayModes":"ξ","zp":"","halfLife":"23.7m","nn":"31","nuclearSpin":"2+","daughterIsotopes":"Ni60","isotopicComposition":"Syn","atomicMass":"59.9374"},{"nuclideSymbol":"Cu61","decayEnergy":"2.237","decayModes":"ξ","zp":"","halfLife":"3.333h","nn":"32","nuclearSpin":"3\/2-","daughterIsotopes":"Ni61","isotopicComposition":"Syn","atomicMass":"60.9335"},{"nuclideSymbol":"Cu62","decayEnergy":"3.948","decayModes":"ξ","zp":"","halfLife":"9.74m","nn":"33","nuclearSpin":"1+","daughterIsotopes":"Ni62","isotopicComposition":"Syn","atomicMass":"61.9326"},{"nuclideSymbol":"Cu63","decayEnergy":"","decayModes":"","zp":"","halfLife":"Stable","nn":"34","nuclearSpin":"3\/2-","daughterIsotopes":"","isotopicComposition":"69.17","atomicMass":"62.9296"},{"nuclideSymbol":"Cu64","decayEnergy":"1.675","decayModes":"ξ","zp":"61","halfLife":"12.700h","nn":"35","nuclearSpin":"1+","daughterIsotopes":"Ni64","isotopicComposition":"Syn","atomicMass":"63.9298"},{"nuclideSymbol":"","decayEnergy":"0.579","decayModes":"β-","zp":"39","halfLife":"12.700h","nn":"","nuclearSpin":"","daughterIsotopes":"Zn64","isotopicComposition":"","atomicMass":""},{"nuclideSymbol":"Cu65","decayEnergy":"","decayModes":"","zp":"","halfLife":"Stable","nn":"36","nuclearSpin":"3\/2-","daughterIsotopes":"","isotopicComposition":"30.83","atomicMass":"64.9278"},{"nuclideSymbol":"Cu66","decayEnergy":"2.642","decayModes":"β-","zp":"","halfLife":"5.120m","nn":"37","nuclearSpin":"1+","daughterIsotopes":"Zn66","isotopicComposition":"Syn","atomicMass":"65.9289"},{"nuclideSymbol":"Cu67","decayEnergy":"0.577","decayModes":"β-","zp":"","halfLife":"61.83h","nn":"38","nuclearSpin":"3\/2-","daughterIsotopes":"Zn67","isotopicComposition":"Syn","atomicMass":"66.9278"},{"nuclideSymbol":"Cu68","decayEnergy":"4.460","decayModes":"β-","zp":"","halfLife":"31.1s","nn":"39","nuclearSpin":"1+","daughterIsotopes":"Zn68","isotopicComposition":"Syn","atomicMass":"67.9296"},{"nuclideSymbol":"MS","decayEnergy":"0.722","decayModes":"IT","zp":"84","halfLife":"3.75m","nn":"","nuclearSpin":"6-","daughterIsotopes":"","isotopicComposition":"Syn","atomicMass":"0.721MeV"},{"nuclideSymbol":"","decayEnergy":"5.182","decayModes":"β-","zp":"16","halfLife":"3.75m","nn":"","nuclearSpin":"","daughterIsotopes":"Zn68","isotopicComposition":"","atomicMass":""},{"nuclideSymbol":"Cu69","decayEnergy":"2.675","decayModes":"β-","zp":"","halfLife":"2.85m","nn":"40","nuclearSpin":"3\/2-","daughterIsotopes":"Zn69","isotopicComposition":"Syn","atomicMass":"68.9294"},{"nuclideSymbol":"Cu70","decayEnergy":"6.599","decayModes":"β-","zp":"","halfLife":"4.5s","nn":"41","nuclearSpin":"1+","daughterIsotopes":"Zn70","isotopicComposition":"Syn","atomicMass":"69.9324"},{"nuclideSymbol":"MS","decayEnergy":"6.739","decayModes":"β-","zp":"","halfLife":"47s","nn":"","nuclearSpin":"4-, 5-","daughterIsotopes":"Zn70","isotopicComposition":"Syn","atomicMass":"0.140MeV"},{"nuclideSymbol":"Cu71","decayEnergy":"4.560","decayModes":"β-","zp":"","halfLife":"19.5s","nn":"42","nuclearSpin":"3\/2-","daughterIsotopes":"Zn71","isotopicComposition":"Syn","atomicMass":"70.9326"},{"nuclideSymbol":"Cu72","decayEnergy":"8.220","decayModes":"β-","zp":"","halfLife":"6.6s","nn":"43","nuclearSpin":"1+","daughterIsotopes":"Zn72","isotopicComposition":"Syn","atomicMass":"71.936"},{"nuclideSymbol":"Cu73","decayEnergy":"6.300","decayModes":"β-","zp":"","halfLife":"3.9s","nn":"44","nuclearSpin":"","daughterIsotopes":"Zn73","isotopicComposition":"Syn","atomicMass":"72.936"},{"nuclideSymbol":"Cu74","decayEnergy":"9.900","decayModes":"β-","zp":"","halfLife":"1.594s","nn":"45","nuclearSpin":"1+, 3+","daughterIsotopes":"Zn74","isotopicComposition":"Syn","atomicMass":"73.94"},{"nuclideSymbol":"Cu75","decayEnergy":"3.100","decayModes":"β- + N","zp":"3.5","halfLife":"1.224s","nn":"46","nuclearSpin":"","daughterIsotopes":"Zn74","isotopicComposition":"Syn","atomicMass":"74.942"},{"nuclideSymbol":"","decayEnergy":"7.900","decayModes":"β-","zp":"","halfLife":"1.224s","nn":"","nuclearSpin":"","daughterIsotopes":"Zn75","isotopicComposition":"","atomicMass":""},{"nuclideSymbol":"Cu76","decayEnergy":"3.700","decayModes":"β- + N","zp":"3","halfLife":"0.641s","nn":"47","nuclearSpin":"","daughterIsotopes":"Zn75","isotopicComposition":"Syn","atomicMass":"75.946"},{"nuclideSymbol":"","decayEnergy":"11.300","decayModes":"β-","zp":"","halfLife":"0.641s","nn":"","nuclearSpin":"","daughterIsotopes":"Zn76","isotopicComposition":"","atomicMass":""},{"nuclideSymbol":"Cu77","decayEnergy":"10.100","decayModes":"β-","zp":"","halfLife":"469ms","nn":"48","nuclearSpin":"","daughterIsotopes":"Zn77","isotopicComposition":"Syn","atomicMass":"76.948"},{"nuclideSymbol":"Cu78","decayEnergy":"12.400","decayModes":"β-","zp":"","halfLife":"342ms","nn":"49","nuclearSpin":"","daughterIsotopes":"Zn78","isotopicComposition":"Syn","atomicMass":"77.953"},{"nuclideSymbol":"Cu79","decayEnergy":"6.400","decayModes":"β- + N","zp":"55","halfLife":"188ms","nn":"50","nuclearSpin":"","daughterIsotopes":"Zn78","isotopicComposition":"Syn","atomicMass":"78.955"},{"nuclideSymbol":"","decayEnergy":"10.700","decayModes":"β-","zp":"","halfLife":"188ms","nn":"","nuclearSpin":"","daughterIsotopes":"Zn79","isotopicComposition":"","atomicMass":""},{"nuclideSymbol":"Cu80","decayEnergy":"","decayModes":"β-","zp":"","halfLife":"","nn":"51","nuclearSpin":"","daughterIsotopes":"","isotopicComposition":"Syn","atomicMass":"79.962"}],"elasticModulusYoungs":"130","atomicMassFootnote":"r","incompatibilities":"Oxidizers, alkalis, sodium azide, acetylene","fillingOrbital":[{"3d":"10"}],"atomicRadius":"1.57","enthalpyOfVaporization":"304.6","heatOfVaporization":"300.3","hardnessScaleBrinell":"874","group":"11","atomicNumber":29,"relativeGasDensity":"","ionizationPotentialThird":"36.83","crossSection":"3.8","electroChemicalEquivalent":"1.1855","electronConfiguration":{"3p":"6","4s":"1","2p":"6","3s":"2","2s":"2","3d":"10","1s":"2"},"criticalTemperature":"","heatOfFusion":"13.05"}