{"hardnessScaleMohs":"","opticalReflectivity":"","meltingPointFootnote":"","conductivityElectrical":"","standardCondition":"Synthetic","crystalStructure":"Unknown","coefficientOfLinealThermalExpansion":"","flammabilityClass":"","molarHeatCapacity":"","numberOfNeutrons":"159","series":"Metal","vaporPressure":{"pa100k":"","pa100kFootnote":"","pa100Footnote":"","pa100":"","pa1Footnote":"","pa1":"","pa1kFootnote":"","pa1k":"","pa10kFootnote":"","pa10Footnote":"","pa10k":"","pa10":""},"casRegistryNumber":"54083-77-1","oxidationStates":"","lineSpectra":[{"intensity":"0","airWavelength":"0","spectrum":"TBD"}],"numberOfElectrons":"110","magneticSusceptibility":"","atomicVolume":"","abundanceCrust":"","boilingPoint":"","discoveryYear":"1994","electroNegativity":"","meltingPoint":"","elasticModulusBulk":"","boilingPointFootnote":"","ionizationPotentialSecond":"","conductivityThermal":"","discoveryLocation":"Darmstadt. Germany","descr":"Man made element of which only a few atoms have ever been created, by fusing nickel and lead atoms in a heavy ion accelerator.","elasticModulusRigidity":"","discoverer":"Sigurd Hofmann, Victor Ninov, Fritz Peter Heberger, Peter Armbruster, H. Folger, et al.","ionicRadius":"","numberOfProtons":"110","abundanceSea":"","atomicMass":"281","molarVolume":"","ionizationPotentialFirst":"","hardnessScaleVickers":"","enthalpyOfAtomization":"","density":"","enthalpyOfFusion":"","opticalRefractiveIndex":"","qualitativeSolubility":"","name":"Darmstadtium","specificHeat":"","valenceElectronPotential":"","covalentRadius":"","electronWorkFunction":"","valenceElectrons":[{"7s":"1"}],"atomicMassKnownAccurately":false,"period":"7","symbol":"Ds","nuclidesAndIsotopes":[{"nuclideSymbol":"","decayEnergy":"","decayModes":"","zp":"","halfLife":"","nn":"","nuclearSpin":"","daughterIsotopes":"","isotopicComposition":"","atomicMass":""}],"elasticModulusYoungs":"","atomicMassFootnote":"a","incompatibilities":"","fillingOrbital":[{"6d":"8"}],"atomicRadius":"","enthalpyOfVaporization":"","heatOfVaporization":"","hardnessScaleBrinell":"","group":"10","atomicNumber":110,"relativeGasDensity":"","ionizationPotentialThird":"","crossSection":"","electroChemicalEquivalent":"","electronConfiguration":{"3d":"10","5s":"2","4s":"2","5f":"14","6p":"6","3s":"2","4f":"14","5p":"6","2s":"2","4p":"6","1s":"2","3p":"6","6d":"9","2p":"6","5d":"10","7s":"1","4d":"10","6s":"2"},"criticalTemperature":"","heatOfFusion":""}