{"hardnessScaleMohs":"","opticalReflectivity":"","meltingPointFootnote":"","conductivityElectrical":"0.0108","standardCondition":"Solid","crystalStructure":"Hexagonal","coefficientOfLinealThermalExpansion":"0.0000086","flammabilityClass":"","molarHeatCapacity":"27.7","numberOfNeutrons":"96","series":"Lanthanide","vaporPressure":{"pa100k":"2558","pa100kFootnote":"i","pa100Footnote":"i","pa100":"1431","pa1Footnote":"s","pa1":"1105","pa1kFootnote":"i","pa1k":"1681","pa10kFootnote":"i","pa10Footnote":"s","pa10k":"2031","pa10":"1250"},"casRegistryNumber":"7429-91-6","oxidationStates":"3","lineSpectra":[{"intensity":"0","airWavelength":"0","spectrum":"TBD"}],"numberOfElectrons":"66","magneticSusceptibility":"+98000","atomicVolume":"19","abundanceCrust":"5.2","boilingPoint":"2567","discoveryYear":"1886","electroNegativity":"1.22","meltingPoint":"1412","elasticModulusBulk":"41","boilingPointFootnote":"","ionizationPotentialSecond":"11.67","conductivityThermal":"0.107","discoveryLocation":"France","descr":"Rare earth metal.","elasticModulusRigidity":"25","discoverer":"Paul émile Lecoq de Boisbaudran","ionicRadius":"0.912","numberOfProtons":"66","abundanceSea":"9.1x10⁻⁷","atomicMass":"162.500","molarVolume":"19","ionizationPotentialFirst":"5.94","hardnessScaleVickers":"540","enthalpyOfAtomization":"301","density":"8.55","enthalpyOfFusion":"11.05","opticalRefractiveIndex":"","qualitativeSolubility":"soluble in diluted acid","name":"Dysprosium","specificHeat":"0.170","atomicMassUncertainty":1,"valenceElectronPotential":"47.4","covalentRadius":"1.59","electronWorkFunction":"","valenceElectrons":[{"4f":"10"},{"6s":"2"}],"atomicMassKnownAccurately":true,"period":"6","symbol":"Dy","nuclidesAndIsotopes":[{"nuclideSymbol":"","decayEnergy":"","decayModes":"","zp":"","halfLife":"","nn":"","nuclearSpin":"","daughterIsotopes":"","isotopicComposition":"","atomicMass":""}],"elasticModulusYoungs":"61","atomicMassFootnote":"g","incompatibilities":"","fillingOrbital":[{"4f":"10"}],"atomicRadius":"2.49","enthalpyOfVaporization":"230","heatOfVaporization":"230","hardnessScaleBrinell":"500","group":"","atomicNumber":66,"relativeGasDensity":"","ionizationPotentialThird":"22.802","crossSection":"930","electroChemicalEquivalent":"2.021","electronConfiguration":{"3d":"10","5s":"2","4s":"2","3s":"2","4f":"10","5p":"6","2s":"2","4p":"6","1s":"2","3p":"6","2p":"6","4d":"10","6s":"2"},"criticalTemperature":"","heatOfFusion":"11.06"}