{"hardnessScaleMohs":"","opticalReflectivity":"","meltingPointFootnote":"","conductivityElectrical":"0.0117","standardCondition":"Solid","crystalStructure":"Hexagonal","coefficientOfLinealThermalExpansion":"0.000092","flammabilityClass":"","molarHeatCapacity":"28.12","numberOfNeutrons":"99","series":"Lanthanide","vaporPressure":{"pa100k":"2859","pa100kFootnote":"i","pa100Footnote":"i","pa100":"1612","pa1Footnote":"s","pa1":"1231","pa1kFootnote":"i","pa1k":"1890","pa10kFootnote":"i","pa10Footnote":"s","pa10k":"2279","pa10":"1390"},"casRegistryNumber":"7440-52-0","oxidationStates":"3","lineSpectra":[{"intensity":"0","airWavelength":"0","spectrum":"TBD"}],"numberOfElectrons":"68","magneticSusceptibility":"+48000","atomicVolume":"18.4","abundanceCrust":"3.5","boilingPoint":"2868","discoveryYear":"1843","electroNegativity":"1.24","meltingPoint":"1529","elasticModulusBulk":"44","boilingPointFootnote":"","ionizationPotentialSecond":"11.929","conductivityThermal":"0.143","discoveryLocation":"Sweden","descr":"Grayish-silver rare earth metal.","elasticModulusRigidity":"28","discoverer":"Carl Mosander","ionicRadius":"0.881","numberOfProtons":"68","abundanceSea":"8.7x10⁻⁷","atomicMass":"167.259","molarVolume":"18.45","ionizationPotentialFirst":"6.101","hardnessScaleVickers":"589","enthalpyOfAtomization":"314","density":"9.07","enthalpyOfFusion":"17.2","opticalRefractiveIndex":"","qualitativeSolubility":"insoluble in H₂0; soluble in acid","name":"Erbium","specificHeat":"0.168","atomicMassUncertainty":3,"valenceElectronPotential":"49","covalentRadius":"1.57","electronWorkFunction":"","valenceElectrons":[{"4f":"12"},{"6s":"2"}],"atomicMassKnownAccurately":true,"period":"6","symbol":"Er","nuclidesAndIsotopes":[{"nuclideSymbol":"","decayEnergy":"","decayModes":"","zp":"","halfLife":"","nn":"","nuclearSpin":"","daughterIsotopes":"","isotopicComposition":"","atomicMass":""}],"elasticModulusYoungs":"70","atomicMassFootnote":"g","incompatibilities":"","fillingOrbital":[{"4f":"12"}],"atomicRadius":"2.45","enthalpyOfVaporization":"261","heatOfVaporization":"261","hardnessScaleBrinell":"814","group":"","atomicNumber":68,"relativeGasDensity":"","ionizationPotentialThird":"22.739","crossSection":"160","electroChemicalEquivalent":"2.0802","electronConfiguration":{"3d":"10","5s":"2","4s":"2","3s":"2","4f":"12","5p":"6","2s":"2","4p":"6","1s":"2","3p":"6","2p":"6","4d":"10","6s":"2"},"criticalTemperature":"","heatOfFusion":"19.9"}