{"hardnessScaleMohs":"","opticalReflectivity":"","meltingPointFootnote":"","conductivityElectrical":"0.0112","standardCondition":"Solid","crystalStructure":"CubicBody","coefficientOfLinealThermalExpansion":"0.000026","flammabilityClass":"","molarHeatCapacity":"27.66","numberOfNeutrons":"89","series":"Lanthanide","vaporPressure":{"pa100k":"1523","pa100kFootnote":"","pa100Footnote":"s","pa100":"799","pa1Footnote":"s","pa1":"590","pa1kFootnote":"","pa1k":"961","pa10kFootnote":"","pa10Footnote":"s","pa10k":"1179","pa10":"684"},"casRegistryNumber":"7440-53-1","oxidationStates":"3, 2","lineSpectra":[{"intensity":"0","airWavelength":"0","spectrum":"TBD"}],"numberOfElectrons":"63","magneticSusceptibility":"+30900","atomicVolume":"28.9","abundanceCrust":"2.0","boilingPoint":"1529","discoveryYear":"1901","electroNegativity":"1.2","meltingPoint":"822","elasticModulusBulk":"8.3","boilingPointFootnote":"","ionizationPotentialSecond":"11.245","conductivityThermal":"0.139","discoveryLocation":"France","descr":"Soft silver rare earth metal.","elasticModulusRigidity":"7.9","discoverer":"Eugene Demarcay","ionicRadius":"0.947","numberOfProtons":"63","abundanceSea":"1.3x10⁻⁷","atomicMass":"151.964","molarVolume":"28.98","ionizationPotentialFirst":"5.67","hardnessScaleVickers":"167","enthalpyOfAtomization":"180","density":"5.24","enthalpyOfFusion":"9.21","opticalRefractiveIndex":"","qualitativeSolubility":"reacts with H₂0","name":"Europium","specificHeat":"0.182","atomicMassUncertainty":1,"valenceElectronPotential":"45.6","covalentRadius":"1.85","electronWorkFunction":"2.5","valenceElectrons":[{"4f":"7"},{"6s":"2"}],"atomicMassKnownAccurately":true,"period":"6","symbol":"Eu","nuclidesAndIsotopes":[{"nuclideSymbol":"","decayEnergy":"","decayModes":"","zp":"","halfLife":"","nn":"","nuclearSpin":"","daughterIsotopes":"","isotopicComposition":"","atomicMass":""}],"elasticModulusYoungs":"18","atomicMassFootnote":"g","incompatibilities":"","fillingOrbital":[{"4f":"7"}],"atomicRadius":"2.56","enthalpyOfVaporization":"143.5","heatOfVaporization":"143.5","hardnessScaleBrinell":"","group":"","atomicNumber":63,"relativeGasDensity":"","ionizationPotentialThird":"24.926","crossSection":"4100","electroChemicalEquivalent":"1.8899","electronConfiguration":{"3d":"10","5s":"2","4s":"2","3s":"2","4f":"7","5p":"6","2s":"2","4p":"6","1s":"2","3p":"6","2p":"6","4d":"10","6s":"2"},"criticalTemperature":"","heatOfFusion":"9.21"}