{"hardnessScaleMohs":"","opticalReflectivity":"","meltingPointFootnote":"triple point","conductivityElectrical":"","standardCondition":"Gas","crystalStructure":"Cubic","coefficientOfLinealThermalExpansion":"","flammabilityClass":"Non-flammable gas (extreme oxidizer)","molarHeatCapacity":"31.304","numberOfNeutrons":"10","series":"Halogen","vaporPressure":{"pa10":"-229.5","pa100kFootnote":"","pa100Footnote":"s","pa100":"-222.9","pa1Footnote":"s","pa1":"-235","pa1kFootnote":"s","pa1k":"-214.8","pa10kFootnote":"","pa10Footnote":"s","pa10k":"-204.3","pa100k":"-188.3"},"casRegistryNumber":"7782-41-4","oxidationStates":"-1","lineSpectra":[{"intensity":"250","airWavelength":"4024.7260","spectrum":"F II"},{"intensity":"200","airWavelength":"4025.0100","spectrum":"F II"},{"intensity":"200","airWavelength":"4103.0740","spectrum":"F II"},{"intensity":"200","airWavelength":"4103.5080","spectrum":"F II"},{"intensity":"150","airWavelength":"4103.8700","spectrum":"F II"},{"intensity":"200","airWavelength":"4246.3850","spectrum":"F II"},{"intensity":"150","airWavelength":"4246.7740","spectrum":"F II"},{"intensity":"200","airWavelength":"4299.1700","spectrum":"F II"},{"intensity":"140","airWavelength":"4420.3000","spectrum":"F III"},{"intensity":"120","airWavelength":"4427.3500","spectrum":"F III"},{"intensity":"120","airWavelength":"4432.3200","spectrum":"F III"},{"intensity":"150","airWavelength":"4446.5270","spectrum":"F II"},{"intensity":"150","airWavelength":"4446.7220","spectrum":"F II"},{"intensity":"200","airWavelength":"4447.1880","spectrum":"F II"},{"intensity":"140","airWavelength":"4479.9900","spectrum":"F III"},{"intensity":"150","airWavelength":"5012.5400","spectrum":"F III"},{"intensity":"160","airWavelength":"5110.99","spectrum":"F III"},{"intensity":"140","airWavelength":"5753.1700","spectrum":"F III"},{"intensity":"120","airWavelength":"5761.2000","spectrum":"F III"},{"intensity":"150","airWavelength":"6091.8200","spectrum":"F III"},{"intensity":"140","airWavelength":"6125.5000","spectrum":"F III"},{"intensity":"130","airWavelength":"6233.5700","spectrum":"F III"},{"intensity":"130","airWavelength":"6239.6510","spectrum":"F I"},{"intensity":"100","airWavelength":"6348.5080","spectrum":"F I"},{"intensity":"140","airWavelength":"6363.0500","spectrum":"F III"},{"intensity":"80","airWavelength":"6413.6510","spectrum":"F I"},{"intensity":"20","airWavelength":"6690.4810","spectrum":"F I"},{"intensity":"70","airWavelength":"6773.9840","spectrum":"F I"},{"intensity":"90","airWavelength":"6834.2640","spectrum":"F I"},{"intensity":"500","airWavelength":"6856.0300","spectrum":"F I"},{"intensity":"80","airWavelength":"6870.2150","spectrum":"F I"},{"intensity":"150","airWavelength":"6902.4750","spectrum":"F I"},{"intensity":"60","airWavelength":"6909.8160","spectrum":"F I"},{"intensity":"40","airWavelength":"6966.3490","spectrum":"F I"}],"numberOfElectrons":"9","magneticSusceptibility":"-9.63","atomicVolume":"17.1","abundanceCrust":"5.85x10²","boilingPoint":"-188.12","discoveryYear":"1886","electroNegativity":"3.98","meltingPoint":"-219.67","elasticModulusBulk":"","boilingPointFootnote":"","ionizationPotentialSecond":"34.97","conductivityThermal":"0.000279","discoveryLocation":"France","descr":"Greenish-yellow gas of the Halogen family.","elasticModulusRigidity":"","discoverer":"Henri Moissan","ionicRadius":"1.33","numberOfProtons":"9","abundanceSea":"1.3","atomicMass":"18.9984032","ionizationPotentialFirst":"17.422","molarVolume":"17.1","hardnessScaleVickers":"","enthalpyOfAtomization":"79.08","density":"1.553","enthalpyOfFusion":"0.26","opticalRefractiveIndex":"1.000195","qualitativeSolubility":"reacts with H₂0","name":"Florine","specificHeat":"0.824","atomicMassUncertainty":5,"valenceElectronPotential":"-10.1","covalentRadius":"0.72","electronWorkFunction":"","valenceElectrons":[{"2p":"5","2s":"2"}],"atomicMassKnownAccurately":true,"period":"2","symbol":"F","nuclidesAndIsotopes":[{"nuclideSymbol":"F14","decayEnergy":"3.200","decayModes":"P","zp":"","halfLife":"","nn":"5","nuclearSpin":"2-","daughterIsotopes":"O13","isotopicComposition":"Syn","atomicMass":"14.036"},{"nuclideSymbol":"F15","decayEnergy":"1.480","decayModes":"P","zp":"","halfLife":"1MeV","nn":"6","nuclearSpin":"1\/2+","daughterIsotopes":"O14","isotopicComposition":"Syn","atomicMass":"15.018"},{"nuclideSymbol":"F16","decayEnergy":"0.536","decayModes":"P","zp":"","halfLife":"40keV","nn":"7","nuclearSpin":"0-","daughterIsotopes":"O15","isotopicComposition":"Syn","atomicMass":"16.0115"},{"nuclideSymbol":"F17","decayEnergy":"2.761","decayModes":"ξ","zp":"","halfLife":"64.49s","nn":"8","nuclearSpin":"5\/2+","daughterIsotopes":"O17","isotopicComposition":"Syn","atomicMass":"17.0021"},{"nuclideSymbol":"F18","decayEnergy":"1.656","decayModes":"ξ","zp":"","halfLife":"109.77m","nn":"9","nuclearSpin":"1+","daughterIsotopes":"O18","isotopicComposition":"Syn","atomicMass":"18.0009"},{"nuclideSymbol":"F19","decayEnergy":"","decayModes":"","zp":"","halfLife":"Stable","nn":"10","nuclearSpin":"1\/2+","daughterIsotopes":"","isotopicComposition":"100","atomicMass":"18.9984"},{"nuclideSymbol":"F20","decayEnergy":"7.025","decayModes":"β-","zp":"","halfLife":"11s","nn":"11","nuclearSpin":"2+","daughterIsotopes":"Ne20","isotopicComposition":"Syn","atomicMass":"20.0"},{"nuclideSymbol":"F21","decayEnergy":"5.684","decayModes":"β-","zp":"","halfLife":"4.158s","nn":"12","nuclearSpin":"5\/2+","daughterIsotopes":"Ne21","isotopicComposition":"Syn","atomicMass":"21.0"},{"nuclideSymbol":"F22","decayEnergy":"10.818","decayModes":"β-","zp":"","halfLife":"4.23s","nn":"13","nuclearSpin":"3+, 4+","daughterIsotopes":"Ne22","isotopicComposition":"Syn","atomicMass":"22.0030"},{"nuclideSymbol":"F23","decayEnergy":"8.480","decayModes":"β-","zp":"","halfLife":"2.23s","nn":"14","nuclearSpin":"5\/2+, 3\/2+","daughterIsotopes":"Ne23","isotopicComposition":"Syn","atomicMass":"23.0036"},{"nuclideSymbol":"F24","decayEnergy":"13.490","decayModes":"β-","zp":"","halfLife":"0.34s","nn":"15","nuclearSpin":"1+, 2+, 3+","daughterIsotopes":"Ne24","isotopicComposition":"Syn","atomicMass":"24.0081"},{"nuclideSymbol":"F25","decayEnergy":"","decayModes":"β-","zp":"","halfLife":"59ms","nn":"16","nuclearSpin":"","daughterIsotopes":"Ne25","isotopicComposition":"Syn","atomicMass":"25.0121"},{"nuclideSymbol":"","decayEnergy":"","decayModes":"β- + N","zp":"","halfLife":"59ms","nn":"","nuclearSpin":"","daughterIsotopes":"Ne24","isotopicComposition":"","atomicMass":""},{"nuclideSymbol":"F26","decayEnergy":"","decayModes":"","zp":"","halfLife":"","nn":"17","nuclearSpin":"","daughterIsotopes":"","isotopicComposition":"Syn","atomicMass":"26.02"},{"nuclideSymbol":"F27","decayEnergy":"","decayModes":"","zp":"","halfLife":"200ns","nn":"18","nuclearSpin":"","daughterIsotopes":"","isotopicComposition":"Syn","atomicMass":"27.027"},{"nuclideSymbol":"F28","decayEnergy":"","decayModes":"","zp":"","halfLife":"","nn":"19","nuclearSpin":"","daughterIsotopes":"","isotopicComposition":"Syn","atomicMass":"28.036"},{"nuclideSymbol":"F29","decayEnergy":"","decayModes":"","zp":"","halfLife":">200ns","nn":"20","nuclearSpin":"","daughterIsotopes":"","isotopicComposition":"Syn","atomicMass":"29.043"}],"elasticModulusYoungs":"","atomicMassFootnote":"","incompatibilities":"Water, nitric acid, oxidizers, organic compounds","fillingOrbital":[{"2p":"5"}],"atomicRadius":"0.57","enthalpyOfVaporization":"3.31","heatOfVaporization":"3.2698","hardnessScaleBrinell":"","group":"17","atomicNumber":9,"relativeGasDensity":"","ionizationPotentialThird":"62.707","crossSection":"9.8","electroChemicalEquivalent":"0.70883","electronConfiguration":{"2p":"5","2s":"2","1s":"2"},"criticalTemperature":"-129.02","heatOfFusion":"0.2552"}