{"hardnessScaleMohs":"4","opticalReflectivity":"65","meltingPointFootnote":"","conductivityElectrical":"0.0993","standardCondition":"Solid","crystalStructure":"CubicBody","coefficientOfLinealThermalExpansion":"0.00001176","flammabilityClass":"","molarHeatCapacity":"25.10","numberOfNeutrons":"30","series":"Transition Metal","vaporPressure":{"pa10":"1617","pa100kFootnote":"","pa100Footnote":"","pa100":"1818","pa1Footnote":"","pa1":"1455","pa1kFootnote":"","pa1k":"2073","pa10kFootnote":"","pa10Footnote":"","pa10k":"2406","pa100k":"2859"},"casRegistryNumber":"7439-89-6","oxidationStates":"2, 3","lineSpectra":[{"intensity":"40","airWavelength":"4005.2419","spectrum":"Fe I"},{"intensity":"300","airWavelength":"4045.8125","spectrum":"Fe I"},{"intensity":"150","airWavelength":"4063.5942","spectrum":"Fe I"},{"intensity":"120","airWavelength":"4071.7380","spectrum":"Fe I"},{"intensity":"40","airWavelength":"4132.0581","spectrum":"Fe I"},{"intensity":"80","airWavelength":"4143.8682","spectrum":"Fe I"},{"intensity":"30","airWavelength":"4202.0293","spectrum":"Fe I"},{"intensity":"40","airWavelength":"4216.1836","spectrum":"Fe I"},{"intensity":"30","airWavelength":"4250.7871","spectrum":"Fe I"},{"intensity":"80","airWavelength":"4260.4746","spectrum":"Fe I"},{"intensity":"120","airWavelength":"4271.7607","spectrum":"Fe I"},{"intensity":"120","airWavelength":"4282.4028","spectrum":"Fe I"},{"intensity":"120","airWavelength":"4307.9023","spectrum":"Fe I"},{"intensity":"150","airWavelength":"4325.7622","spectrum":"Fe I"},{"intensity":"80","airWavelength":"4375.9302","spectrum":"Fe I"},{"intensity":"200","airWavelength":"4383.5449","spectrum":"Fe I"},{"intensity":"120","airWavelength":"4404.7505","spectrum":"Fe I"},{"intensity":"30","airWavelength":"4415.1226","spectrum":"Fe I"},{"intensity":"60","airWavelength":"4427.2979","spectrum":"Fe I"},{"intensity":"40","airWavelength":"4461.6528","spectrum":"Fe I"},{"intensity":"50","airWavelength":"4920.5029","spectrum":"Fe I"},{"intensity":"150","airWavelength":"4957.5967","spectrum":"Fe I"},{"intensity":"250","airWavelength":"5167.4883","spectrum":"Fe I"},{"intensity":"50","airWavelength":"5171.5962","spectrum":"Fe I"},{"intensity":"100","airWavelength":"5227.1509","spectrum":"Fe I"},{"intensity":"120","airWavelength":"5269.5376","spectrum":"Fe I"},{"intensity":"80","airWavelength":"5270.3564","spectrum":"Fe I"},{"intensity":"80","airWavelength":"5328.0386","spectrum":"Fe I"},{"intensity":"30","airWavelength":"5328.5317","spectrum":"Fe I"},{"intensity":"50","airWavelength":"5341.0239","spectrum":"Fe I"},{"intensity":"40","airWavelength":"5371.4897","spectrum":"Fe I"},{"intensity":"30","airWavelength":"5397.1279","spectrum":"Fe I"},{"intensity":"50","airWavelength":"6247.5600","spectrum":"Fe II"},{"intensity":"120","airWavelength":"6456.3800","spectrum":"Fe II"}],"numberOfElectrons":"26","magneticSusceptibility":"Ferromagnetic","atomicVolume":"7.1","abundanceCrust":"5.63x10⁴","boilingPoint":"2861","discoveryYear":"Known to the ancients","electroNegativity":"1.83","meltingPoint":"1538","elasticModulusBulk":"170","boilingPointFootnote":"","ionizationPotentialSecond":"16.18","conductivityThermal":"0.802","discoveryLocation":"?","descr":"Silvery-white transition metal.","elasticModulusRigidity":"82","discoverer":"Known to the ancients","ionicRadius":"0.645","numberOfProtons":"26","abundanceSea":"2x10⁻²","atomicMass":"55.845","ionizationPotentialFirst":"7.87","molarVolume":"7.11","hardnessScaleVickers":"608","enthalpyOfAtomization":"414.2","density":"7.87","enthalpyOfFusion":"14.9","opticalRefractiveIndex":"","qualitativeSolubility":"soluble in diluted acid","name":"Iron","specificHeat":"0.449","atomicMassUncertainty":2,"valenceElectronPotential":"67","covalentRadius":"1.17","electronWorkFunction":"4.7","valenceElectrons":[{"3d":"6"},{"4s":"2"}],"atomicMassKnownAccurately":true,"period":"4","symbol":"Fe","nuclidesAndIsotopes":[{"nuclideSymbol":"Fe45","decayEnergy":"","decayModes":"","zp":"","halfLife":"","nn":"19","nuclearSpin":"","daughterIsotopes":"","isotopicComposition":"Syn","atomicMass":"45.015"},{"nuclideSymbol":"Fe46","decayEnergy":"13.100","decayModes":"ξ","zp":"","halfLife":"20ms","nn":"20","nuclearSpin":"0+","daughterIsotopes":"Mn46","isotopicComposition":"Syn","atomicMass":"46.001"},{"nuclideSymbol":"","decayEnergy":"12.900","decayModes":"ξ + P","zp":"","halfLife":"20ms","nn":"","nuclearSpin":"","daughterIsotopes":"Cr45","isotopicComposition":"","atomicMass":""},{"nuclideSymbol":"Fe47","decayEnergy":"15.600","decayModes":"ξ","zp":"","halfLife":"27ms","nn":"21","nuclearSpin":"","daughterIsotopes":"Mn47","isotopicComposition":"Syn","atomicMass":"46.993"},{"nuclideSymbol":"","decayEnergy":"15.600","decayModes":"ξ + P","zp":"","halfLife":"27ms","nn":"","nuclearSpin":"","daughterIsotopes":"Cr46","isotopicComposition":"","atomicMass":""},{"nuclideSymbol":"Fe48","decayEnergy":"9.160","decayModes":"ξ + P","zp":">3.6","halfLife":"44ms","nn":"22","nuclearSpin":"0+","daughterIsotopes":"Cr47","isotopicComposition":"Syn","atomicMass":"47.981"},{"nuclideSymbol":"","decayEnergy":"10.890","decayModes":"ξ","zp":"","halfLife":"44ms","nn":"","nuclearSpin":"","daughterIsotopes":"Mn48","isotopicComposition":"","atomicMass":""},{"nuclideSymbol":"Fe49","decayEnergy":"10.940","decayModes":"ξ + P","zp":">=62","halfLife":"70ms","nn":"23","nuclearSpin":"7\/2-","daughterIsotopes":"Cr48","isotopicComposition":"Syn","atomicMass":"48.974"},{"nuclideSymbol":"","decayEnergy":"13.030","decayModes":"ξ","zp":"","halfLife":"70ms","nn":"","nuclearSpin":"","daughterIsotopes":"Mn49","isotopicComposition":"","atomicMass":""},{"nuclideSymbol":"Fe50","decayEnergy":"3.560","decayModes":"ξ + P","zp":"~0","halfLife":"150ms","nn":"24","nuclearSpin":"0+","daughterIsotopes":"Cr49","isotopicComposition":"Syn","atomicMass":"49.963"},{"nuclideSymbol":"","decayEnergy":"8.150","decayModes":"ξ","zp":"","halfLife":"150ms","nn":"","nuclearSpin":"","daughterIsotopes":"Mn50","isotopicComposition":"","atomicMass":""},{"nuclideSymbol":"Fe51","decayEnergy":"8.020","decayModes":"ξ","zp":"","halfLife":"305ms","nn":"25","nuclearSpin":"5\/2-","daughterIsotopes":"Mn51","isotopicComposition":"Syn","atomicMass":"50.9568"},{"nuclideSymbol":"Fe52","decayEnergy":"2.372","decayModes":"ξ","zp":"","halfLife":"8.275h","nn":"26","nuclearSpin":"0+","daughterIsotopes":"Mn52","isotopicComposition":"Syn","atomicMass":"51.9481"},{"nuclideSymbol":"MS","decayEnergy":"9.192","decayModes":"ξ","zp":"","halfLife":"45.9s","nn":"","nuclearSpin":"12+","daughterIsotopes":"Mn52","isotopicComposition":"Syn","atomicMass":"6.820MeV"},{"nuclideSymbol":"Fe53","decayEnergy":"3.743","decayModes":"ξ","zp":"","halfLife":"8.51m","nn":"27","nuclearSpin":"7\/2-","daughterIsotopes":"Mn53","isotopicComposition":"Syn","atomicMass":"52.9453"},{"nuclideSymbol":"MS","decayEnergy":"3.040","decayModes":"IT","zp":"","halfLife":"2.58m","nn":"","nuclearSpin":"19\/2-","daughterIsotopes":"","isotopicComposition":"Syn","atomicMass":"3.040MeV"},{"nuclideSymbol":"Fe54","decayEnergy":"","decayModes":"","zp":"","halfLife":"Stable","nn":"28","nuclearSpin":"0+","isotopicComposition":"5.8","atomicMass":"53.9396"},{"nuclideSymbol":"Fe55","decayEnergy":"0.231","decayModes":"ξ","zp":"","halfLife":"2.73y","nn":"29","nuclearSpin":"3\/2-","daughterIsotopes":"Mn55","isotopicComposition":"Syn","atomicMass":"54.9383"},{"nuclideSymbol":"Fe56","decayEnergy":"","decayModes":"","zp":"","halfLife":"Stable","nn":"30","nuclearSpin":"0+","daughterIsotopes":"","isotopicComposition":"91.72","atomicMass":"55.9349"},{"nuclideSymbol":"Fe57","decayEnergy":"","decayModes":"","zp":"","halfLife":"Stable","nn":"31","nuclearSpin":"1\/2-","daughterIsotopes":"","isotopicComposition":"2.2","atomicMass":"56.9354"},{"nuclideSymbol":"Fe58","decayEnergy":"","decayModes":"","zp":"","halfLife":"Stable","nn":"32","nuclearSpin":"0+","daughterIsotopes":"","isotopicComposition":"0.28","atomicMass":"57.9333"},{"nuclideSymbol":"Fe59","decayEnergy":"1.565","decayModes":"β-","zp":"","halfLife":"44.503d","nn":"33","nuclearSpin":"3\/2-","daughterIsotopes":"Co59","isotopicComposition":"Syn","atomicMass":"58.9349"},{"nuclideSymbol":"Fe60","decayEnergy":"0.237","decayModes":"β-","zp":"","halfLife":"1500000y","nn":"34","nuclearSpin":"0+","daughterIsotopes":"Co60","isotopicComposition":"Syn","atomicMass":"59.9341"},{"nuclideSymbol":"Fe61","decayEnergy":"3.978","decayModes":"β-","zp":"","halfLife":"5.98m","nn":"35","nuclearSpin":"2-, 5\/2-","daughterIsotopes":"Co61","isotopicComposition":"Syn","atomicMass":"60.9367"},{"nuclideSymbol":"Fe62","decayEnergy":"2.530","decayModes":"β-","zp":"","halfLife":"68s","nn":"36","nuclearSpin":"0+","daughterIsotopes":"Co62","isotopicComposition":"Syn","atomicMass":"61.9368"},{"nuclideSymbol":"Fe63","decayEnergy":"6.320","decayModes":"β-","zp":"","halfLife":"6.1s","nn":"37","nuclearSpin":"5\/2-","daughterIsotopes":"Co63","isotopicComposition":"Syn","atomicMass":"62.94"},{"nuclideSymbol":"Fe64","decayEnergy":"4.700","decayModes":"β-","zp":"","halfLife":"2s","nn":"38","nuclearSpin":"0+","daughterIsotopes":"Co64","isotopicComposition":"Syn","atomicMass":"63.941"},{"nuclideSymbol":"Fe65","decayEnergy":"7.900","decayModes":"β-","zp":"","halfLife":"0.4s","nn":"39","nuclearSpin":"","daughterIsotopes":"Co65","isotopicComposition":"Syn","atomicMass":"64.945"},{"nuclideSymbol":"Fe66","decayEnergy":"","decayModes":"","zp":"","halfLife":"440ms","nn":"40","nuclearSpin":"0+","daughterIsotopes":"","isotopicComposition":"Syn","atomicMass":"65.946"},{"nuclideSymbol":"Fe67","decayEnergy":"8.700","decayModes":"β-","zp":"","halfLife":"470ms","nn":"41","nuclearSpin":"1\/2-","daughterIsotopes":"Co67","isotopicComposition":"Syn","atomicMass":"66.95"},{"nuclideSymbol":"Fe68","decayEnergy":"7.600","decayModes":"β-","zp":"","halfLife":"0.1s","nn":"42","nuclearSpin":"0+","daughterIsotopes":"Co68","isotopicComposition":"Syn","atomicMass":"67.953"},{"nuclideSymbol":"Fe69","decayEnergy":"","decayModes":"β-","zp":"","halfLife":"170ms","nn":"43","nuclearSpin":"1\/2-","daughterIsotopes":"","isotopicComposition":"Syn","atomicMass":"68.958"},{"nuclideSymbol":"Fe70","decayEnergy":"","decayModes":"β-","zp":"","halfLife":"","nn":"44","nuclearSpin":"0+","daughterIsotopes":"","isotopicComposition":"Syn","atomicMass":""},{"nuclideSymbol":"Fe71","decayEnergy":"","decayModes":"β-","zp":"","halfLife":"","nn":"45","nuclearSpin":"7\/2+","daughterIsotopes":"","isotopicComposition":"Syn","atomicMass":""},{"nuclideSymbol":"Fe72","decayEnergy":"","decayModes":"β-","zp":"","halfLife":"","nn":"46","nuclearSpin":"0+","daughterIsotopes":"","isotopicComposition":"Syn","atomicMass":""}],"elasticModulusYoungs":"211","atomicMassFootnote":"","incompatibilities":"","fillingOrbital":[{"3d":"6"}],"atomicRadius":"1.72","enthalpyOfVaporization":"351","heatOfVaporization":"349.6","hardnessScaleBrinell":"490","group":"8","atomicNumber":26,"relativeGasDensity":"","ionizationPotentialThird":"30.651","crossSection":"2.56","electroChemicalEquivalent":"0.69455","electronConfiguration":{"3p":"6","4s":"2","2p":"6","3s":"2","2s":"2","3d":"6","1s":"2"},"criticalTemperature":"","heatOfFusion":"13.8"}