{"hardnessScaleMohs":"","opticalReflectivity":"","meltingPointFootnote":"(predicted)","conductivityElectrical":"","standardCondition":"Synthetic","crystalStructure":"Unknown","coefficientOfLinealThermalExpansion":"","flammabilityClass":"","molarHeatCapacity":"","numberOfNeutrons":"175","series":"Metal","vaporPressure":{"pa100k":"","pa100kFootnote":"","pa100Footnote":"","pa100":"","pa1Footnote":"","pa1":"","pa1kFootnote":"","pa1k":"","pa10kFootnote":"","pa10Footnote":"","pa10k":"","pa10":""},"casRegistryNumber":"54085-16-4","oxidationStates":"0, 1, 2, 4, 6 ","lineSpectra":[{"intensity":"0","airWavelength":"0","spectrum":"TBD"}],"numberOfElectrons":"114","magneticSusceptibility":"","atomicVolume":"","abundanceCrust":"","boilingPoint":"147","discoveryYear":"1998","electroNegativity":"","meltingPoint":" 67 ","elasticModulusBulk":"","boilingPointFootnote":"(predicted)","ionizationPotentialSecond":"","conductivityThermal":"","discoveryLocation":"Russia","descr":"Man made element of which only a few atoms have ever been created.","elasticModulusRigidity":"","discoverer":"Dubna (Joint Institute for Nuclear Research)","ionicRadius":"","numberOfProtons":"114","abundanceSea":"","atomicMass":"289","molarVolume":"","ionizationPotentialFirst":"","hardnessScaleVickers":"","enthalpyOfAtomization":"","density":"14","enthalpyOfFusion":"","opticalRefractiveIndex":"","qualitativeSolubility":"","name":"Flerovium","specificHeat":"","valenceElectronPotential":"","covalentRadius":"171–177","electronWorkFunction":"","valenceElectrons":[{"7p":"2"}],"atomicMassKnownAccurately":false,"period":"7","symbol":"Fl","nuclidesAndIsotopes":[{"nuclideSymbol":"","decayEnergy":"","decayModes":"","zp":"","halfLife":"","nn":"","nuclearSpin":"","daughterIsotopes":"","isotopicComposition":"","atomicMass":""}],"elasticModulusYoungs":"","atomicMassFootnote":"a","incompatibilities":"","fillingOrbital":[{"7p":"2"}],"atomicRadius":" 180 ","enthalpyOfVaporization":"","heatOfVaporization":"38","hardnessScaleBrinell":"","group":"14","atomicNumber":114,"relativeGasDensity":"","ionizationPotentialThird":"","crossSection":"","electroChemicalEquivalent":"","electronConfiguration":{"3d":"10","5s":"2","7p":"2","4s":"2","5f":"14","6p":"","3s":"2","4f":"14","5p":"6","2s":"2","4p":"6","1s":"2","3p":"6","6d":"10","2p":"6","5d":"10","7s":"2","4d":"10","6s":""},"criticalTemperature":"","heatOfFusion":""}