{"hardnessScaleMohs":"","opticalReflectivity":"","meltingPointFootnote":"","conductivityElectrical":"0.03","standardCondition":"Solid","crystalStructure":"CubicBody","coefficientOfLinealThermalExpansion":"","flammabilityClass":"","molarHeatCapacity":"","numberOfNeutrons":"136","series":"Alkali Metal","vaporPressure":{"pa100k":"673","pa100kFootnote":"e","pa100Footnote":"e","pa100":"146","pa1Footnote":"e","pa1":"131","pa1kFootnote":"e","pa1k":"335","pa10kFootnote":"e","pa10Footnote":"e","pa10k":"465","pa10":"181"},"casRegistryNumber":"7440-73-5","oxidationStates":"1","lineSpectra":[{"intensity":"0","airWavelength":"0","spectrum":"TBD"}],"numberOfElectrons":"87","magneticSusceptibility":"","atomicVolume":"","abundanceCrust":"","boilingPoint":"","discoveryYear":"1939","electroNegativity":"0.7","meltingPoint":"27","elasticModulusBulk":"","boilingPointFootnote":"","ionizationPotentialSecond":"","conductivityThermal":"0.15","discoveryLocation":"France","descr":"Radioactive alkali metal.","elasticModulusRigidity":"","discoverer":"Marguerite Derey","ionicRadius":"1.8","numberOfProtons":"87","abundanceSea":"","atomicMass":"223.0917","molarVolume":"","ionizationPotentialFirst":"3.83","hardnessScaleVickers":"","enthalpyOfAtomization":"71","density":"","enthalpyOfFusion":"","opticalRefractiveIndex":"","qualitativeSolubility":"","name":"Francium","specificHeat":"","valenceElectronPotential":"8","covalentRadius":"","electronWorkFunction":"","valenceElectrons":[{"7s":"1"}],"atomicMassKnownAccurately":false,"period":"7","symbol":"Fr","nuclidesAndIsotopes":[{"nuclideSymbol":"","decayEnergy":"","decayModes":"","zp":"","halfLife":"","nn":"","nuclearSpin":"","daughterIsotopes":"","isotopicComposition":"","atomicMass":""}],"elasticModulusYoungs":"","atomicMassFootnote":"a","incompatibilities":"","fillingOrbital":[{"7s":"1"}],"atomicRadius":"","enthalpyOfVaporization":"","heatOfVaporization":"","hardnessScaleBrinell":"","group":"1","atomicNumber":87,"relativeGasDensity":"","ionizationPotentialThird":"","crossSection":"","electroChemicalEquivalent":"8.3209","electronConfiguration":{"3d":"10","5s":"2","4s":"2","6p":"6","3s":"2","4f":"14","5p":"6","2s":"2","4p":"6","1s":"2","3p":"6","2p":"6","5d":"10","7s":"1","4d":"10","6s":"2"},"criticalTemperature":"","heatOfFusion":"9.39"}