{"hardnessScaleMohs":"1.5","opticalReflectivity":"","meltingPointFootnote":"triple point","conductivityElectrical":"0.0678","standardCondition":"Liquid","crystalStructure":"Cubic","coefficientOfLinealThermalExpansion":"0.0000181","flammabilityClass":"","molarHeatCapacity":"25.86","numberOfNeutrons":"39","series":"Metal","vaporPressure":{"pa10":"1175","pa100kFootnote":"","pa100Footnote":"","pa100":"1347","pa1Footnote":"","pa1":"1037","pa1kFootnote":"","pa1k":"1565","pa10kFootnote":"","pa10Footnote":"","pa10k":"1852","pa100k":"2245"},"casRegistryNumber":"7440-53-3","oxidationStates":"3","lineSpectra":[{"intensity":"500","airWavelength":"4032.9840","spectrum":"Ga I"},{"intensity":"1000","airWavelength":"4172.0420","spectrum":"Ga I"},{"intensity":"300","airWavelength":"4262.0190","spectrum":"Ga II"},{"intensity":"500","airWavelength":"5219.6500","spectrum":"Ga II"},{"intensity":"500","airWavelength":"5416.3600","spectrum":"Ga II"},{"intensity":"1000","airWavelength":"6334.0500","spectrum":"Ga II"},{"intensity":"100","airWavelength":"6396.5600","spectrum":"Ga I"},{"intensity":"70","airWavelength":"6413.4500","spectrum":"Ga I"},{"intensity":"900","airWavelength":"6419.2300","spectrum":"Ga II"},{"intensity":"800","airWavelength":"6455.8900","spectrum":"Ga II"}],"numberOfElectrons":"31","magneticSusceptibility":"-21.6","atomicVolume":"11.8","abundanceCrust":"1.9x10¹","boilingPoint":"2404","discoveryYear":"1875","electroNegativity":"1.81","meltingPoint":"29.771","elasticModulusBulk":"","boilingPointFootnote":"","ionizationPotentialSecond":"20.51","conductivityThermal":"0.406","discoveryLocation":"France","descr":"Soft silver-white metal. Properties similar to aluminum.","elasticModulusRigidity":"","discoverer":"Paul émile Lecoq de Boisbaudran","ionicRadius":"0.62","numberOfProtons":"31","abundanceSea":"3x10⁻⁵","atomicMass":"69.723","ionizationPotentialFirst":"5.999","molarVolume":"11.4","hardnessScaleVickers":"","enthalpyOfAtomization":"276.1","density":"5.91","enthalpyOfFusion":"5.59","opticalRefractiveIndex":"","qualitativeSolubility":"reacts with alkaline solutions","name":"Gallium","specificHeat":"0.371","atomicMassUncertainty":1,"valenceElectronPotential":"69.7","covalentRadius":"1.26","electronWorkFunction":"4.2","valenceElectrons":[{"4s":"2"},{"4p":"1"}],"atomicMassKnownAccurately":true,"period":"4","symbol":"Ga","nuclidesAndIsotopes":[{"nuclideSymbol":"Ga56","decayEnergy":"","decayModes":"","zp":"","halfLife":"","nn":"25","nuclearSpin":"","daughterIsotopes":"","isotopicComposition":"Syn","atomicMass":"55.995"},{"nuclideSymbol":"Ga57","decayEnergy":"","decayModes":"","zp":"","halfLife":"","nn":"26","nuclearSpin":"","daughterIsotopes":"","isotopicComposition":"Syn","atomicMass":"56.983"},{"nuclideSymbol":"Ga58","decayEnergy":"","decayModes":"","zp":"","halfLife":"","nn":"27","nuclearSpin":"","daughterIsotopes":"","isotopicComposition":"Syn","atomicMass":"57.974"},{"nuclideSymbol":"Ga59","decayEnergy":"","decayModes":"","zp":"","halfLife":"","nn":"28","nuclearSpin":"","daughterIsotopes":"","isotopicComposition":"Syn","atomicMass":"58.963"},{"nuclideSymbol":"Ga60","decayEnergy":"","decayModes":"","zp":"","halfLife":"","nn":"29","nuclearSpin":"","daughterIsotopes":"","isotopicComposition":"Syn","atomicMass":"59.957"},{"nuclideSymbol":"Ga61","decayEnergy":"9.000","decayModes":"ξ","zp":"","halfLife":"0.15s","nn":"30","nuclearSpin":"3\/2-","daughterIsotopes":"Zn61","isotopicComposition":"Syn","atomicMass":"60.949"},{"nuclideSymbol":"Ga62","decayEnergy":"9.170","decayModes":"ξ","zp":"","halfLife":"116.12ms","nn":"31","nuclearSpin":"0+","daughterIsotopes":"Zn62","isotopicComposition":"Syn","atomicMass":"61.9442"},{"nuclideSymbol":"Ga63","decayEnergy":"5.520","decayModes":"ξ","zp":"","halfLife":"32.4s","nn":"32","nuclearSpin":"2-, 5\/2-","daughterIsotopes":"Zn63","isotopicComposition":"Syn","atomicMass":"62.939"},{"nuclideSymbol":"Ga64","decayEnergy":"7.165","decayModes":"ξ","zp":"","halfLife":"2.627m","nn":"33","nuclearSpin":"0+","daughterIsotopes":"Zn64","isotopicComposition":"Syn","atomicMass":"63.9368"},{"nuclideSymbol":"Ga65","decayEnergy":"3.255","decayModes":"ξ","zp":"","halfLife":"15.2m","nn":"34","nuclearSpin":"3\/2-","daughterIsotopes":"Zn65","isotopicComposition":"Syn","atomicMass":"64.9327"},{"nuclideSymbol":"Ga66","decayEnergy":"5.175","decayModes":"ξ","zp":"","halfLife":"9.49h","nn":"35","nuclearSpin":"0+","daughterIsotopes":"Zn66","isotopicComposition":"Syn","atomicMass":"65.9316"},{"nuclideSymbol":"Ga67","decayEnergy":"1.000","decayModes":"ξ","zp":"","halfLife":"3.2612d","nn":"36","nuclearSpin":"3\/2-","daughterIsotopes":"Zn67","isotopicComposition":"Syn","atomicMass":"66.9282"},{"nuclideSymbol":"Ga68","decayEnergy":"2.921","decayModes":"ξ","zp":"","halfLife":"67.629m","nn":"37","nuclearSpin":"1+","daughterIsotopes":"Zn68","isotopicComposition":"Syn","atomicMass":"67.928"},{"nuclideSymbol":"Ga69","decayEnergy":"","decayModes":"","zp":"","halfLife":"Stable","nn":"38","nuclearSpin":"3\/2-","daughterIsotopes":"","isotopicComposition":"60.108","atomicMass":"68.9256"},{"nuclideSymbol":"Ga70","decayEnergy":"1.656","decayModes":"β-","zp":"99.59","halfLife":"21.14m","nn":"39","nuclearSpin":"1+","daughterIsotopes":"Ge70","isotopicComposition":"Syn","atomicMass":"69.926"},{"nuclideSymbol":"","decayEnergy":"0.655","decayModes":"ξ","zp":"0.41","halfLife":"21.14m","nn":"","nuclearSpin":"","daughterIsotopes":"Zn70","isotopicComposition":"","atomicMass":""},{"nuclideSymbol":"Ga71","decayEnergy":"","decayModes":"","zp":"","halfLife":"Stable","nn":"40","nuclearSpin":"3\/2-","daughterIsotopes":"","isotopicComposition":"39.892","atomicMass":"70.9247"},{"nuclideSymbol":"Ga72","decayEnergy":"4.001","decayModes":"β-","zp":"","halfLife":"14.10h","nn":"41","nuclearSpin":"3-","daughterIsotopes":"Ge72","isotopicComposition":"Syn","atomicMass":"71.9264"},{"nuclideSymbol":"MS","decayEnergy":"","decayModes":"IT","zp":"","halfLife":"39.68ms","nn":"","nuclearSpin":"0+","daughterIsotopes":"Ga72","isotopicComposition":"Syn","atomicMass":"0.120MeV"},{"nuclideSymbol":"Ga73","decayEnergy":"1.593","decayModes":"β-","zp":"","halfLife":"4.86h","nn":"42","nuclearSpin":"3\/2-","daughterIsotopes":"Ge73","isotopicComposition":"Syn","atomicMass":"72.9252"},{"nuclideSymbol":"Ga74","decayEnergy":"5.370","decayModes":"β-","zp":"","halfLife":"8.12m","nn":"43","nuclearSpin":"3-","daughterIsotopes":"Ge74","isotopicComposition":"Syn","atomicMass":"73.9269"},{"nuclideSymbol":"MS","decayEnergy":"0.060","decayModes":"IT","zp":"75","halfLife":"9.5s","nn":"","nuclearSpin":"0","daughterIsotopes":"","isotopicComposition":"Syn","atomicMass":"0.060MeV"},{"nuclideSymbol":"","decayEnergy":"5.430","decayModes":"β-","zp":"<50","halfLife":"9.5s","nn":"","nuclearSpin":"","daughterIsotopes":"Ge74","isotopicComposition":"","atomicMass":""},{"nuclideSymbol":"Ga75","decayEnergy":"3.392","decayModes":"β-","zp":"","halfLife":"126s","nn":"44","nuclearSpin":"3\/2-","daughterIsotopes":"Ge75","isotopicComposition":"Syn","atomicMass":"74.9265"},{"nuclideSymbol":"Ga76","decayEnergy":"7.010","decayModes":"β-","zp":"","halfLife":"32.6s","nn":"45","nuclearSpin":"2+, 3+","daughterIsotopes":"Ge76","isotopicComposition":"Syn","atomicMass":"75.9289"},{"nuclideSymbol":"Ga77","decayEnergy":"5.340","decayModes":"β-","zp":"","halfLife":"13.2s","nn":"46","nuclearSpin":"3\/2-","daughterIsotopes":"Ge77","isotopicComposition":"Syn","atomicMass":"76.9293"},{"nuclideSymbol":"Ga78","decayEnergy":"8.200","decayModes":"β-","zp":"","halfLife":"5.09s","nn":"47","nuclearSpin":"3+","daughterIsotopes":"Ge78","isotopicComposition":"Syn","atomicMass":"77.9317"},{"nuclideSymbol":"Ga79","decayEnergy":"1.300","decayModes":"β- + N","zp":"0.08","halfLife":"2.847s","nn":"48","nuclearSpin":"3\/2-","daughterIsotopes":"Ge78","isotopicComposition":"Syn","atomicMass":"78.933"},{"nuclideSymbol":"","decayEnergy":"7.000","decayModes":"β-","zp":"","halfLife":"2.847s","nn":"","nuclearSpin":"","daughterIsotopes":"Ge79","isotopicComposition":"","atomicMass":""},{"nuclideSymbol":"Ga80","decayEnergy":"2.350","decayModes":"β- + N","zp":"0.89","halfLife":"1.697s","nn":"49","nuclearSpin":"3\/2-","daughterIsotopes":"Ge79","isotopicComposition":"Syn","atomicMass":"79.937"},{"nuclideSymbol":"","decayEnergy":"10.380","decayModes":"β-","zp":"","halfLife":"1.697s","nn":"","nuclearSpin":"","daughterIsotopes":"Ge80","isotopicComposition":"","atomicMass":""},{"nuclideSymbol":"Ga81","decayEnergy":"3.390","decayModes":"β- + N","zp":"11.9","halfLife":"1.217s","nn":"50","nuclearSpin":"5\/2-","daughterIsotopes":"Ge80","isotopicComposition":"Syn","atomicMass":"80.938"},{"nuclideSymbol":"","decayEnergy":"8.320","decayModes":"β-","zp":"","halfLife":"1.217s","nn":"","nuclearSpin":"","daughterIsotopes":"Ge81","isotopicComposition":"","atomicMass":""},{"nuclideSymbol":"Ga82","decayEnergy":"5.300","decayModes":"β- + N","zp":"22.3","halfLife":"0.599s","nn":"51","nuclearSpin":"1, 2, 3","daughterIsotopes":"Ge81","isotopicComposition":"Syn","atomicMass":"81.943"},{"nuclideSymbol":"","decayEnergy":"12.700","decayModes":"β-","zp":"","halfLife":"0.599s","nn":"","nuclearSpin":"","daughterIsotopes":"Ge82","isotopicComposition":"","atomicMass":""},{"nuclideSymbol":"Ga83","decayEnergy":"8.000","decayModes":"β- + N","zp":"40","halfLife":"0.31s","nn":"52","nuclearSpin":"","daughterIsotopes":"Ge82","isotopicComposition":"Syn","atomicMass":"82.947"},{"nuclideSymbol":"","decayEnergy":"11.500","decayModes":"β-","zp":"","halfLife":"0.31s","nn":"","nuclearSpin":"","daughterIsotopes":"Ge83","isotopicComposition":"","atomicMass":""},{"nuclideSymbol":"Ga84","decayEnergy":"8.500","decayModes":"β- + N","zp":"~70","halfLife":"85ms","nn":"53","nuclearSpin":"","daughterIsotopes":"Ge83","isotopicComposition":"Syn","atomicMass":"83.952"},{"nuclideSymbol":"","decayEnergy":"14.000","decayModes":"β-","zp":"","halfLife":"85ms","nn":"","nuclearSpin":"","daughterIsotopes":"Ge84","isotopicComposition":"","atomicMass":""}],"elasticModulusYoungs":"","atomicMassFootnote":"","incompatibilities":"","fillingOrbital":[{"4p":"1"}],"atomicRadius":"1.81","enthalpyOfVaporization":"256.1","heatOfVaporization":"258.7","hardnessScaleBrinell":"60","group":"13","atomicNumber":31,"relativeGasDensity":"","ionizationPotentialThird":"30.71","crossSection":"3.1","electroChemicalEquivalent":"0.8671","electronConfiguration":{"4p":"1","3p":"6","4s":"2","2p":"6","3s":"2","2s":"2","3d":"10","1s":"2"},"criticalTemperature":"","heatOfFusion":"5.59"}