{"hardnessScaleMohs":"","opticalReflectivity":"","meltingPointFootnote":"","conductivityElectrical":"0.00736","standardCondition":"Solid","crystalStructure":"Hexagonal","coefficientOfLinealThermalExpansion":"0.0000097","flammabilityClass":"","molarHeatCapacity":"37.03","numberOfNeutrons":"93","series":"Lanthanide","vaporPressure":{"pa100k":"3262","pa100kFootnote":"i","pa100Footnote":"i","pa100":"1994","pa1Footnote":"i","pa1":"1563","pa1kFootnote":"i","pa1k":"2300","pa10kFootnote":"i","pa10Footnote":"i","pa10k":"2703","pa10":"1755"},"casRegistryNumber":"7440-54-2","oxidationStates":"3","lineSpectra":[{"intensity":"0","airWavelength":"0","spectrum":"TBD"}],"numberOfElectrons":"64","magneticSusceptibility":"+185000","atomicVolume":"19.9","abundanceCrust":"6.2","boilingPoint":"3273","discoveryYear":"1880","electroNegativity":"1.2","meltingPoint":"1313","elasticModulusBulk":"38","boilingPointFootnote":"","ionizationPotentialSecond":"12.095","conductivityThermal":"0.106","discoveryLocation":"Switzerland","descr":"Silver-white rare earth metal.","elasticModulusRigidity":"22","discoverer":"Jean de Marignac","ionicRadius":"0.938","numberOfProtons":"64","abundanceSea":"7x10⁻⁷","atomicMass":"157.25","molarVolume":"19.9","ionizationPotentialFirst":"6.15","hardnessScaleVickers":"570","enthalpyOfAtomization":"352","density":"7.9","enthalpyOfFusion":"10.05","opticalRefractiveIndex":"","qualitativeSolubility":"soluble in diluted acid","name":"Gadolinium","specificHeat":"0.236","atomicMassUncertainty":3,"valenceElectronPotential":"46.1","covalentRadius":"1.61","electronWorkFunction":"3.1","valenceElectrons":[{"4f":"7"},{"5d":"1"},{"6s":"2"}],"atomicMassKnownAccurately":true,"period":"6","symbol":"Gd","nuclidesAndIsotopes":[{"nuclideSymbol":"","decayEnergy":"","decayModes":"","zp":"","halfLife":"","nn":"","nuclearSpin":"","daughterIsotopes":"","isotopicComposition":"","atomicMass":""}],"elasticModulusYoungs":"55","atomicMassFootnote":"g","incompatibilities":"","fillingOrbital":[{"4f":"7"}],"atomicRadius":"2.54","enthalpyOfVaporization":"359.4","heatOfVaporization":"359.4","hardnessScaleBrinell":"","group":"","atomicNumber":64,"relativeGasDensity":"","ionizationPotentialThird":"20.635","crossSection":"48800","electroChemicalEquivalent":"1.9557","electronConfiguration":{"3d":"10","5s":"2","4s":"2","3s":"2","4f":"7","5p":"6","2s":"2","4p":"6","1s":"2","3p":"6","2p":"6","5d":"1","4d":"10","6s":"2"},"criticalTemperature":"","heatOfFusion":"10.05"}