{"hardnessScaleMohs":"6","opticalReflectivity":"","meltingPointFootnote":"","conductivityElectrical":"0.0000000145","standardCondition":"Solid","crystalStructure":"CubicFace","coefficientOfLinealThermalExpansion":"0.00000575","flammabilityClass":"Combustable Solid, fine dust easily ignited.","molarHeatCapacity":"23.222","numberOfNeutrons":"41","series":"Metal","vaporPressure":{"pa10":"1541","pa100kFootnote":"","pa100Footnote":"","pa100":"1750","pa1Footnote":"","pa1":"1371","pa1kFootnote":"","pa1k":"2014","pa10kFootnote":"","pa10Footnote":"","pa10k":"2360","pa100k":"2831"},"casRegistryNumber":"7440-56-4","oxidationStates":"4","lineSpectra":[{"intensity":"1000","airWavelength":"4741.8060","spectrum":"Ge II"},{"intensity":"1000","airWavelength":"4814.6080","spectrum":"Ge II"},{"intensity":"1000","airWavelength":"5893.3890","spectrum":"Ge II"},{"intensity":"500","airWavelength":"6021.0410","spectrum":"Ge II"}],"numberOfElectrons":"32","magneticSusceptibility":"-11.6","atomicVolume":"13.6","abundanceCrust":"1.5","boilingPoint":"2833","discoveryYear":"1886","electroNegativity":"2.01","meltingPoint":"938.25","elasticModulusBulk":"","boilingPointFootnote":"","ionizationPotentialSecond":"15.934","conductivityThermal":"0.599","discoveryLocation":"Germany","descr":"Hard brittle grayish-white metal.","elasticModulusRigidity":"","discoverer":"Clemens Winkler","ionicRadius":"0.53","numberOfProtons":"32","abundanceSea":"5x10⁻⁵","atomicMass":"72.64","ionizationPotentialFirst":"7.899","molarVolume":"13.57","hardnessScaleVickers":"","enthalpyOfAtomization":"376.6","density":"5.3234","enthalpyOfFusion":"34.7","opticalRefractiveIndex":"","qualitativeSolubility":"insoluble in H₂0, diluted acids, alkaline solutions","name":"Germanium","specificHeat":"0.320","atomicMassUncertainty":1,"valenceElectronPotential":"109","covalentRadius":"1.22","electronWorkFunction":"5","valenceElectrons":[{"4s":"2"},{"4p":"2"}],"atomicMassKnownAccurately":true,"period":"4","symbol":"Ge","nuclidesAndIsotopes":[{"nuclideSymbol":"Ge58","decayEnergy":"","decayModes":"","zp":"","halfLife":"","nn":"26","nuclearSpin":"0+","daughterIsotopes":"","isotopicComposition":"Syn","atomicMass":"57.991"},{"nuclideSymbol":"Ge59","decayEnergy":"","decayModes":"","zp":"","halfLife":"","nn":"27","nuclearSpin":"","daughterIsotopes":"","isotopicComposition":"Syn","atomicMass":"58.982"},{"nuclideSymbol":"Ge60","decayEnergy":"","decayModes":"","zp":"","halfLife":"","nn":"28","nuclearSpin":"0+","daughterIsotopes":"","isotopicComposition":"Syn","atomicMass":"59.97"},{"nuclideSymbol":"Ge61","decayEnergy":"13.200","decayModes":"ξ + P","zp":"~60","halfLife":"40ms","nn":"29","nuclearSpin":"3\/2-","daughterIsotopes":"Zn60","isotopicComposition":"Syn","atomicMass":"60.964"},{"nuclideSymbol":"","decayEnergy":"13.600","decayModes":"ξ","zp":"","halfLife":"40ms","nn":"","nuclearSpin":"","daughterIsotopes":"Ga61","isotopicComposition":"","atomicMass":""},{"nuclideSymbol":"Ge62","decayEnergy":"","decayModes":"","zp":"","halfLife":"","nn":"30","nuclearSpin":"0+","daughterIsotopes":"","isotopicComposition":"Syn","atomicMass":"61.955"},{"nuclideSymbol":"MS","decayEnergy":"9.750","decayModes":"ξ","zp":"","halfLife":"0.11s","nn":"","nuclearSpin":"0+","daughterIsotopes":"Ga62","isotopicComposition":"Syn","atomicMass":"0.000MeV"},{"nuclideSymbol":"Ge63","decayEnergy":"9.780","decayModes":"ξ","zp":"","halfLife":"95ms","nn":"31","nuclearSpin":"","daughterIsotopes":"Ga63","isotopicComposition":"Syn","atomicMass":"62.95"},{"nuclideSymbol":"Ge64","decayEnergy":"4.410","decayModes":"ξ","zp":"","halfLife":"63.7s","nn":"32","nuclearSpin":"0+","daughterIsotopes":"Ga64","isotopicComposition":"Syn","atomicMass":"63.942"},{"nuclideSymbol":"Ge65","decayEnergy":"6.240","decayModes":"ξ","zp":"","halfLife":"30.9s","nn":"33","nuclearSpin":"3\/2-","daughterIsotopes":"Ga65","isotopicComposition":"Syn","atomicMass":"64.939"},{"nuclideSymbol":"Ge66","decayEnergy":"2.100","decayModes":"ξ","zp":"","halfLife":"2.26h","nn":"34","nuclearSpin":"0+","daughterIsotopes":"Ga66","isotopicComposition":"Syn","atomicMass":"65.9338"},{"nuclideSymbol":"Ge67","decayEnergy":"4.223","decayModes":"ξ","zp":"","halfLife":"18.9m","nn":"35","nuclearSpin":"1\/2-","daughterIsotopes":"Ga67","isotopicComposition":"Syn","atomicMass":"66.9327"},{"nuclideSymbol":"Ge68","decayEnergy":"0.106","decayModes":"ξ","zp":"","halfLife":"270.8d","nn":"36","nuclearSpin":"0+","daughterIsotopes":"Ga68","isotopicComposition":"Syn","atomicMass":"67.9281"},{"nuclideSymbol":"Ge69","decayEnergy":"2.227","decayModes":"ξ","zp":"","halfLife":"39.05h","nn":"37","nuclearSpin":"5\/2-","daughterIsotopes":"Ga69","isotopicComposition":"Syn","atomicMass":"68.928"},{"nuclideSymbol":"MS","decayEnergy":"0.087","decayModes":"IT","zp":"","halfLife":"5.1us","nn":"","nuclearSpin":"1\/2-","daughterIsotopes":"","isotopicComposition":"Syn","atomicMass":"0.086MeV"},{"nuclideSymbol":"MS","decayEnergy":"0.398","decayModes":"IT","zp":"","halfLife":"2.81us","nn":"","nuclearSpin":"9\/2+","daughterIsotopes":"","isotopicComposition":"Syn","atomicMass":"0.397MeV"},{"nuclideSymbol":"Ge70","decayEnergy":"","decayModes":"","zp":"","halfLife":"Stable","nn":"38","nuclearSpin":"0+","daughterIsotopes":"","isotopicComposition":"21.23","atomicMass":"69.9243"},{"nuclideSymbol":"Ge71","decayEnergy":"0.229","decayModes":"ξ","zp":"","halfLife":"11.43d","nn":"39","nuclearSpin":"1\/2-","daughterIsotopes":"Ga71","isotopicComposition":"Syn","atomicMass":"70.925"},{"nuclideSymbol":"MS","decayEnergy":"0.198","decayModes":"IT","zp":"","halfLife":"20.4ms","nn":"","nuclearSpin":"9\/2+","daughterIsotopes":"","isotopicComposition":"Syn","atomicMass":"0.198MeV"},{"nuclideSymbol":"Ge72","decayEnergy":"","decayModes":"","zp":"","halfLife":"Stable","nn":"40","nuclearSpin":"0+","daughterIsotopes":"","isotopicComposition":"27.66","atomicMass":"71.9221"},{"nuclideSymbol":"Ge73","decayEnergy":"","decayModes":"","zp":"","halfLife":"Stable","nn":"41","nuclearSpin":"9\/2+","daughterIsotopes":"","isotopicComposition":"7.73","atomicMass":"72.9235"},{"nuclideSymbol":"MS","decayEnergy":"0.067","decayModes":"IT","zp":"","halfLife":"0.499s","nn":"","nuclearSpin":"1\/2-","daughterIsotopes":"","isotopicComposition":"Syn","atomicMass":"0.067MeV"},{"nuclideSymbol":"Ge74","decayEnergy":"","decayModes":"","zp":"","halfLife":"Stable","nn":"42","nuclearSpin":"0+","daughterIsotopes":"","isotopicComposition":"35.94","atomicMass":"73.9212"},{"nuclideSymbol":"Ge75","decayEnergy":"1.176","decayModes":"β-","zp":"","halfLife":"82.78m","nn":"43","nuclearSpin":"1\/2-","daughterIsotopes":"As75","isotopicComposition":"Syn","atomicMass":"74.9229"},{"nuclideSymbol":"MS","decayEnergy":"0.140","decayModes":"IT","zp":"99.97","halfLife":"47.7s","nn":"","nuclearSpin":"7\/2+","daughterIsotopes":"","isotopicComposition":"Syn","atomicMass":"0.139MeV"},{"nuclideSymbol":"","decayEnergy":"1.316","decayModes":"β-","zp":"0.03","halfLife":"47.7s","nn":"","nuclearSpin":"","daughterIsotopes":"As75","isotopicComposition":"","atomicMass":""},{"nuclideSymbol":"Ge76","decayEnergy":"","decayModes":"","zp":"","halfLife":"Stable","nn":"44","nuclearSpin":"0+","daughterIsotopes":"","isotopicComposition":"Syn","atomicMass":"75.9214"},{"nuclideSymbol":"Ge77","decayEnergy":"2.702","decayModes":"β-","zp":"","halfLife":"11.3h","nn":"45","nuclearSpin":"7\/2+","daughterIsotopes":"As77","isotopicComposition":"Syn","atomicMass":"76.9236"},{"nuclideSymbol":"MS","decayEnergy":"2.862","decayModes":"β-","zp":"81","halfLife":"52.9s","nn":"","nuclearSpin":"1\/2-","daughterIsotopes":"As77","isotopicComposition":"Syn","atomicMass":"0.159MeV"},{"nuclideSymbol":"","decayEnergy":"0.160","decayModes":"IT","zp":"19","halfLife":"52.9s","nn":"","nuclearSpin":"","daughterIsotopes":"","isotopicComposition":"","atomicMass":""},{"nuclideSymbol":"Ge78","decayEnergy":"0.954","decayModes":"β-","zp":"","halfLife":"88m","nn":"46","nuclearSpin":"0+","daughterIsotopes":"As78","isotopicComposition":"7.44","atomicMass":"77.9229"},{"nuclideSymbol":"Ge79","decayEnergy":"4.150","decayModes":"β-","zp":"","halfLife":"18.98s","nn":"47","nuclearSpin":"1\/2-","daughterIsotopes":"As79","isotopicComposition":"Syn","atomicMass":"78.9254"},{"nuclideSymbol":"MS","decayEnergy":"4.336","decayModes":"β-","zp":"96","halfLife":"39s","nn":"","nuclearSpin":"7\/2+","daughterIsotopes":"As79","isotopicComposition":"Syn","atomicMass":"0.186MeV"},{"nuclideSymbol":"","decayEnergy":"0.186","decayModes":"IT","zp":"4","halfLife":"39s","nn":"","nuclearSpin":"","daughterIsotopes":"","isotopicComposition":"","atomicMass":""},{"nuclideSymbol":"Ge80","decayEnergy":"2.670","decayModes":"β-","zp":"","halfLife":"29.5s","nn":"48","nuclearSpin":"0+","daughterIsotopes":"As80","isotopicComposition":"Syn","atomicMass":"79.9254"},{"nuclideSymbol":"Ge81","decayEnergy":"6.230","decayModes":"β-","zp":"","halfLife":"7.6s","nn":"49","nuclearSpin":"9\/2+","daughterIsotopes":"As81","isotopicComposition":"Syn","atomicMass":"80.929"},{"nuclideSymbol":"MS","decayEnergy":"6.909","decayModes":"β-","zp":"","halfLife":"7.6s","nn":"","nuclearSpin":"1\/2+","daughterIsotopes":"As81","isotopicComposition":"Syn","atomicMass":"0.679MeV"},{"nuclideSymbol":"Ge82","decayEnergy":"4.700","decayModes":"β-","zp":"","halfLife":"4.6s","nn":"50","nuclearSpin":"0+","daughterIsotopes":"As82","isotopicComposition":"Syn","atomicMass":"81.93"},{"nuclideSymbol":"Ge83","decayEnergy":"8.900","decayModes":"β-","zp":"","halfLife":"1.85s","nn":"51","nuclearSpin":"5\/2+","daughterIsotopes":"As83","isotopicComposition":"Syn","atomicMass":"82.935"},{"nuclideSymbol":"Ge84","decayEnergy":"3.400","decayModes":"β- + N","zp":"10.8","halfLife":"947ms","nn":"52","nuclearSpin":"0+","daughterIsotopes":"As83","isotopicComposition":"Syn","atomicMass":"83.937"},{"nuclideSymbol":"","decayEnergy":"7.700","decayModes":"β-","zp":"","halfLife":"947ms","nn":"","nuclearSpin":"","daughterIsotopes":"As84","isotopicComposition":"","atomicMass":""},{"nuclideSymbol":"Ge85","decayEnergy":"4.600","decayModes":"β- + N","zp":"14","halfLife":"535ms","nn":"53","nuclearSpin":"","daughterIsotopes":"As84","isotopicComposition":"Syn","atomicMass":"84.943"},{"nuclideSymbol":"","decayEnergy":"10.100","decayModes":"β-","zp":"","halfLife":"535ms","nn":"","nuclearSpin":"","daughterIsotopes":"As85","isotopicComposition":"","atomicMass":""},{"nuclideSymbol":"Ge86","decayEnergy":"","decayModes":"","zp":"","halfLife":">150ns","nn":"54","nuclearSpin":"0+","daughterIsotopes":"","isotopicComposition":"Syn","atomicMass":"85.946"},{"nuclideSymbol":"Ge87","decayEnergy":"","decayModes":"β-","zp":"","halfLife":"","nn":"55","nuclearSpin":"5\/2+","daughterIsotopes":"","isotopicComposition":"Syn","atomicMass":""},{"nuclideSymbol":"Ge88","decayEnergy":"","decayModes":"β-","zp":"","halfLife":"","nn":"56","nuclearSpin":"0+","daughterIsotopes":"","isotopicComposition":"Syn","atomicMass":""},{"nuclideSymbol":"Ge89","decayEnergy":"","decayModes":"β-","zp":"","halfLife":"","nn":"57","nuclearSpin":"1\/2+","daughterIsotopes":"","isotopicComposition":"Syn","atomicMass":""}],"elasticModulusYoungs":"","atomicMassFootnote":"","incompatibilities":"Acids","fillingOrbital":[{"4p":"2"}],"atomicRadius":"1.52","enthalpyOfVaporization":"334.3","heatOfVaporization":"330.9","hardnessScaleBrinell":"","group":"14","atomicNumber":32,"relativeGasDensity":"","ionizationPotentialThird":"34.22","crossSection":"2.3","electroChemicalEquivalent":"0.6771","electronConfiguration":{"4p":"2","3p":"6","4s":"2","2p":"6","3s":"2","2s":"2","3d":"10","1s":"2"},"criticalTemperature":"","heatOfFusion":"36.94"}