{"hardnessScaleMohs":"","opticalReflectivity":"","meltingPointFootnote":"","conductivityElectrical":"","standardCondition":"Gas","crystalStructure":"Hexagonal","coefficientOfLinealThermalExpansion":"","flammabilityClass":"Highly flammable gas","molarHeatCapacity":"28.836","numberOfNeutrons":"0","series":"Non Metal","vaporPressure":{"pa10":"","pa100kFootnote":"","pa100Footnote":"","pa100":"","pa1Footnote":"","pa1":"","pa1kFootnote":"","pa1k":"","pa10kFootnote":"","pa10Footnote":"","pa10k":"-258.6","pa100k":"-252.8"},"casRegistryNumber":"1333-74-0","oxidationStates":"1","lineSpectra":[{"intensity":"15","airWavelength":"4101.74","spectrum":"H I"},{"intensity":"30","airWavelength":"4340.4620","spectrum":"H I"},{"intensity":"30","airWavelength":"4861.2786","spectrum":"H I"},{"intensity":"10","airWavelength":"4861.2870","spectrum":"H I"},{"intensity":"60","airWavelength":"4861.3615","spectrum":"H I"},{"intensity":"90","airWavelength":"6562.7110","spectrum":"H I"},{"intensity":"30","airWavelength":"6562.7248","spectrum":"H I"},{"intensity":"180","airWavelength":"6562.8518","spectrum":"H I"}],"numberOfElectrons":"1","magneticSusceptibility":"-3.99","atomicVolume":"14.4","abundanceCrust":"1.40x10³","boilingPoint":"-252.87","discoveryYear":"1766","electroNegativity":"2.2","meltingPoint":"-259.34","elasticModulusBulk":"","boilingPointFootnote":"","ionizationPotentialSecond":"","conductivityThermal":"0.001815","discoveryLocation":"England","descr":"Tasteless, colorless, odorless and extremely flammable gas.","elasticModulusRigidity":"","discoverer":"Henry Cavendish","ionicRadius":"0.012","numberOfProtons":"1","abundanceSea":"1.05x10⁵","atomicMass":"1.00794","ionizationPotentialFirst":"13.598","molarVolume":"14.1","hardnessScaleVickers":"","enthalpyOfAtomization":"217.6","density":"0.082","enthalpyOfFusion":"0.059","opticalRefractiveIndex":"1.000132 (gas) 1.12 (liquid)","qualitativeSolubility":"soluble in H₂0","name":"Hydrogen","specificHeat":"14.304","atomicMassUncertainty":7,"valenceElectronPotential":"1200","covalentRadius":"0.32","electronWorkFunction":"","valenceElectrons":[{"1s":"1"}],"atomicMassKnownAccurately":true,"period":"1","symbol":"H","nuclidesAndIsotopes":[{"nuclideSymbol":"¹H","decayEnergy":"Stable","decayModes":"Stable","zp":"1","halfLife":"Stable","nn":"0","nuclearSpin":"1\/2+","daughterIsotopes":"Stable","naturalRangeVariation":"0.9998–0.9999","isotopicComposition":"99.985","atomicMass":"1.0078"},{"nuclideSymbol":"²H (D)","decayEnergy":"Stable","decayModes":"Stable","zp":"1","halfLife":"Stable","nn":"1","nuclearSpin":"1+","daughterIsotopes":"Stable","naturalRangeVariation":"0.0000–0.0001","isotopicComposition":"0.000115","atomicMass":"2.0141"},{"nuclideSymbol":"³H (T)","decayEnergy":"0.019","decayModes":"β-","zp":"1","halfLife":"12.33y","nn":"2","nuclearSpin":"1\/2+","daughterIsotopes":"³He","naturalRangeVariation":"","isotopicComposition":"Trace","atomicMass":"3.016"},{"nuclideSymbol":"⁴H","decayEnergy":"4.6(9) MeV","decayModes":"n","zp":"1","halfLife":"1.39(10)×10⁻²² s","nn":"3","nuclearSpin":"2-","daughterIsotopes":"³H","naturalRangeVariation":"","isotopicComposition":"Syn","atomicMass":"4.026"},{"nuclideSymbol":"⁵H","decayEnergy":"","decayModes":"2n","zp":"1","halfLife":">9.1×10⁻²² s ?","nn":"4","nuclearSpin":"(1\/2+)","daughterIsotopes":"³H","naturalRangeVariation":"","isotopicComposition":"Syn","atomicMass":"5.035"},{"nuclideSymbol":"⁶H","decayEnergy":"1.6(4) MeV","decayModes":"3n","zp":"1","halfLife":"2.90(70)×10⁻²² s","nn":"5","nuclearSpin":"2-#","daughterIsotopes":"³H","naturalRangeVariation":"","isotopicComposition":"Syn","atomicMass":"6.044"},{"nuclideSymbol":"","decayEnergy":"","decayModes":"4n","zp":"","halfLife":"","nn":"","nuclearSpin":"","daughterIsotopes":"²H","naturalRangeVariation":"","isotopicComposition":"","atomicMass":""},{"nuclideSymbol":"⁷H","decayEnergy":"","decayModes":"4n","zp":"1","halfLife":"2.3(6)×10⁻²³ s#","nn":"5","nuclearSpin":"1\/2+#","daughterIsotopes":"²He","naturalRangeVariation":"","isotopicComposition":"Syn","atomicMass":"7.0522"}],"elasticModulusYoungs":"","atomicMassFootnote":"g m r","incompatibilities":"metals, oxidizing materials, metal oxides, combustible materials, halogens, metal salts, halo carbons","fillingOrbital":[{"1s":"1"}],"atomicRadius":"0.79","enthalpyOfVaporization":"0.449","heatOfVaporization":"0.44936","hardnessScaleBrinell":"","group":"1","atomicNumber":1,"relativeGasDensity":"0.0694","ionizationPotentialThird":"","crossSection":"0.33","electroChemicalEquivalent":"","electronConfiguration":{"1s":"1"},"criticalTemperature":"-240.18","heatOfFusion":"0.05868"}