{"hardnessScaleMohs":"","opticalReflectivity":"","meltingPointFootnote":"","conductivityElectrical":"","standardCondition":"Gas","crystalStructure":"Hexagonal","coefficientOfLinealThermalExpansion":"","flammabilityClass":"Non-flammable gas","molarHeatCapacity":"20.786","numberOfNeutrons":"2","series":"Noble Gas","vaporPressure":{"pa10":"","pa100kFootnote":"","pa100Footnote":"","pa100":"","pa1Footnote":"","pa1":"","pa1kFootnote":"","pa1k":"","pa10kFootnote":"","pa10Footnote":"","pa10k":"-270.6","pa100k":"-268.9"},"casRegistryNumber":"7440-59-7","oxidationStates":"0","lineSpectra":[{"intensity":"1","airWavelength":"4009.2700","spectrum":"He I"},{"intensity":"50","airWavelength":"4026.1910","spectrum":"He I"},{"intensity":"5","airWavelength":"4026.3600","spectrum":"He I"},{"intensity":"12","airWavelength":"4120.8200","spectrum":"He I"},{"intensity":"2","airWavelength":"4120.9900","spectrum":"He I"},{"intensity":"3","airWavelength":"4143.7600","spectrum":"He I"},{"intensity":"10","airWavelength":"4387.9290","spectrum":"He I"},{"intensity":"3","airWavelength":"4437.5500","spectrum":"He I"},{"intensity":"200","airWavelength":"4471.4790","spectrum":"He I"},{"intensity":"25","airWavelength":"4471.6800","spectrum":"He I"},{"intensity":"4","airWavelength":"4685.3769","spectrum":"He II"},{"intensity":"3","airWavelength":"4685.4072","spectrum":"He II"},{"intensity":"15","airWavelength":"4685.7038","spectrum":"He II"},{"intensity":"15","airWavelength":"4685.7044","spectrum":"He II"},{"intensity":"12","airWavelength":"4685.8041","spectrum":"He II"},{"intensity":"30","airWavelength":"4713.1460","spectrum":"He I"},{"intensity":"4","airWavelength":"4713.3800","spectrum":"He I"},{"intensity":"20","airWavelength":"4921.9310","spectrum":"He I"},{"intensity":"100","airWavelength":"5015.6780","spectrum":"He I"},{"intensity":"10","airWavelength":"5047.7400","spectrum":"He I"},{"intensity":"5","airWavelength":"5411.5200","spectrum":"He II"},{"intensity":"500","airWavelength":"5875.6148","spectrum":"He I"},{"intensity":"250","airWavelength":"5875.6404","spectrum":"He I"},{"intensity":"120","airWavelength":"5875.9663","spectrum":"He I"},{"intensity":"8","airWavelength":"6560.1000","spectrum":"He II"},{"intensity":"200","airWavelength":"6678.1517","spectrum":"He I"},{"intensity":"3","airWavelength":"6867.4800","spectrum":"He I"}],"numberOfElectrons":"2","magneticSusceptibility":"-2.02","atomicVolume":"19.5","abundanceCrust":"8x10⁻³","boilingPoint":"-268.93","discoveryYear":"1895","electroNegativity":"","meltingPoint":"-272.05","elasticModulusBulk":"","boilingPointFootnote":"","ionizationPotentialSecond":"54.416","conductivityThermal":"0.00152","discoveryLocation":"Scotland\/Sweden","descr":"Light, odorless, colorless, tasteless noble gas.","elasticModulusRigidity":"","discoverer":"Sir William Ramsey, Nils Langet, P.T.Cleve","ionicRadius":"","numberOfProtons":"2","abundanceSea":"7x10⁻⁶","atomicMass":"4.002602","ionizationPotentialFirst":"24.587","molarVolume":"31.8","hardnessScaleVickers":"","enthalpyOfAtomization":"","density":"0.164","enthalpyOfFusion":"","opticalRefractiveIndex":"1.000035 (gas) 1.028 (liquid)","qualitativeSolubility":"soluble in H₂0; insoluble in ethanol","name":"Helium","specificHeat":"5.193","atomicMassUncertainty":2,"valenceElectronPotential":"","covalentRadius":"0.93","electronWorkFunction":"","valenceElectrons":[{"1s":"2"}],"atomicMassKnownAccurately":true,"period":"1","symbol":"He","nuclidesAndIsotopes":[{"nuclideSymbol":"²He","decayEnergy":"","decayModes":"p (＞99.99%)","zp":"2","halfLife":"≪ 10−9 s","nn":"0","nuclearSpin":"0+#","daughterIsotopes":"2 ¹H","naturalRangeVariation":"","isotopicComposition":"","atomicMass":"2.0158"},{"nuclideSymbol":"","decayEnergy":"","decayModes":"β+ (＜ 0.01%)","zp":"","halfLife":"","nn":"","nuclearSpin":"","daughterIsotopes":"²H","naturalRangeVariation":"","isotopicComposition":"","atomicMass":""},{"nuclideSymbol":"³He","decayEnergy":"Stable","decayModes":"Stable","zp":"2","halfLife":"Stable","nn":"1","nuclearSpin":"1\/2+","daughterIsotopes":"Stable","naturalRangeVariation":"4.6×10⁻¹⁰−4.1×10⁻⁵","isotopicComposition":"1.34(3)×10−6","atomicMass":"3.0160"},{"nuclideSymbol":"⁴He","decayEnergy":"Stable","decayModes":"Stable","zp":"2","halfLife":"Stable","nn":"2","nuclearSpin":"0+","daughterIsotopes":"Stable","naturalRangeVariation":"0.9999-1","isotopicComposition":"0.9999","atomicMass":"4.0026"},{"nuclideSymbol":"⁵He","decayEnergy":"","decayModes":"n","zp":"2","halfLife":"700(30)×10−24 s","nn":"3","nuclearSpin":"3\/2-","daughterIsotopes":"⁴He","naturalRangeVariation":"","isotopicComposition":"","atomicMass":"5.0122"},{"nuclideSymbol":"⁶He","decayEnergy":"","decayModes":"β- (99.99%)","zp":"2","halfLife":"806.7(15) ms","nn":"4","nuclearSpin":"0+","daughterIsotopes":"⁶Li","naturalRangeVariation":"","isotopicComposition":"","atomicMass":"6.0188"},{"nuclideSymbol":"","decayEnergy":"","decayModes":"β-, α (2.8×10⁻⁴%)","zp":"","halfLife":"","nn":"","nuclearSpin":"","daughterIsotopes":"⁴He, ²H","naturalRangeVariation":"","isotopicComposition":"","atomicMass":""},{"nuclideSymbol":"⁷He","decayEnergy":"[159(28) keV]","decayModes":"n","zp":"2","halfLife":"2.9(5)×10⁻²¹ s","nn":"5","nuclearSpin":"3\/2-","daughterIsotopes":"⁶He","naturalRangeVariation":"","isotopicComposition":"","atomicMass":"7.0280"},{"nuclideSymbol":"⁸He","decayEnergy":"","decayModes":"β− (83.1%)","zp":"2","halfLife":"119.0(15) ms","nn":"6","nuclearSpin":"0+","daughterIsotopes":"⁸Li","naturalRangeVariation":"","isotopicComposition":"","atomicMass":"8.0339"},{"nuclideSymbol":"","decayEnergy":"","decayModes":"β−,n (16.0%)","zp":"","halfLife":"","nn":"","nuclearSpin":"","daughterIsotopes":"⁷Li","naturalRangeVariation":"","isotopicComposition":"","atomicMass":""},{"nuclideSymbol":"","decayEnergy":"","decayModes":"β−, fission (0.9%)","zp":"","halfLife":"","nn":"","nuclearSpin":"","daughterIsotopes":"⁵He, ³H","naturalRangeVariation":"","isotopicComposition":"","atomicMass":""},{"nuclideSymbol":"⁹He","decayEnergy":"","decayModes":"n","zp":"2","halfLife":"7(4)×10⁻²¹ s","nn":"7","nuclearSpin":"1\/2−(#)","daughterIsotopes":"⁸He","naturalRangeVariation":"","isotopicComposition":"","atomicMass":"9.0439"},{"nuclideSymbol":"¹⁰He","decayEnergy":"","decayModes":"2n","zp":"2","halfLife":"2.7(18)×10⁻²¹ s","nn":"8","nuclearSpin":"0+","daughterIsotopes":"⁸He","naturalRangeVariation":"","isotopicComposition":"","atomicMass":"10.0524"}],"elasticModulusYoungs":"","atomicMassFootnote":"g r","incompatibilities":"","fillingOrbital":[{"1s":"2"}],"atomicRadius":"0.49","enthalpyOfVaporization":"0.083","heatOfVaporization":"","hardnessScaleBrinell":"","group":"18","atomicNumber":2,"relativeGasDensity":"","ionizationPotentialThird":"","crossSection":"0.007","electroChemicalEquivalent":"","electronConfiguration":{"1s":"2"},"criticalTemperature":"-267.96","heatOfFusion":"5.23"}