{"hardnessScaleMohs":"5.5","opticalReflectivity":"","meltingPointFootnote":"","conductivityElectrical":"0.312","standardCondition":"Solid","crystalStructure":"Hexagonal","coefficientOfLinealThermalExpansion":"0.0000056","flammabilityClass":"Explosive in powder form","molarHeatCapacity":"27.73","numberOfNeutrons":"106","series":"Transition Metal","vaporPressure":{"pa100k":"4063","pa100kFootnote":"","pa100Footnote":"","pa100":"3004","pa1Footnote":"","pa1":"2416","pa1kFootnote":"","pa1k":"3406","pa10kFootnote":"","pa10Footnote":"","pa10k":"3921","pa10":"2681"},"casRegistryNumber":"7440-58-6","oxidationStates":"4","lineSpectra":[{"intensity":"0","airWavelength":"0","spectrum":"TBD"}],"numberOfElectrons":"72","magneticSusceptibility":"+71","atomicVolume":"13.6","abundanceCrust":"3.0","boilingPoint":"4603","discoveryYear":"1923","electroNegativity":"1.3","meltingPoint":"2233","elasticModulusBulk":"110","boilingPointFootnote":"","ionizationPotentialSecond":"14.925","conductivityThermal":"0.23","discoveryLocation":"Denmark","descr":"Silver colored transition metal","elasticModulusRigidity":"30","discoverer":"Dirk Coster, Georg von Hevesy","ionicRadius":"0.71","numberOfProtons":"72","abundanceSea":"7x10⁻⁶","atomicMass":"178.49","molarVolume":"13.41","ionizationPotentialFirst":"6.65","hardnessScaleVickers":"1760","enthalpyOfAtomization":"703","density":"13.3","enthalpyOfFusion":"25.1","opticalRefractiveIndex":"","qualitativeSolubility":"soluble in HF","name":"Hafnium","specificHeat":"0.144","atomicMassUncertainty":2,"valenceElectronPotential":"81","covalentRadius":"1.44","electronWorkFunction":"3.9","valenceElectrons":[{"5d":"6"},{"6s":"2"}],"atomicMassKnownAccurately":true,"period":"6","symbol":"Hf","nuclidesAndIsotopes":[{"nuclideSymbol":"","decayEnergy":"","decayModes":"","zp":"","halfLife":"","nn":"","nuclearSpin":"","daughterIsotopes":"","isotopicComposition":"","atomicMass":""}],"elasticModulusYoungs":"78","atomicMassFootnote":"","incompatibilities":"Strong oxidizers, chlorine","fillingOrbital":[{"5d":"2"}],"atomicRadius":"2.16","enthalpyOfVaporization":"661.1","heatOfVaporization":"575","hardnessScaleBrinell":"1700","group":"4","atomicNumber":72,"relativeGasDensity":"","ionizationPotentialThird":"23.32","crossSection":"103","electroChemicalEquivalent":"1.6649","electronConfiguration":{"3d":"10","5s":"2","4s":"2","3s":"2","4f":"14","5p":"6","2s":"2","4p":"6","1s":"2","3p":"6","2p":"6","5d":"2","4d":"10","6s":"2"},"criticalTemperature":"","heatOfFusion":"24.06"}