{"hardnessScaleMohs":"1.5","opticalReflectivity":"73","meltingPointFootnote":"triple point","conductivityElectrical":"0.0104","standardCondition":"Liquid","crystalStructure":"Rhombohedral","coefficientOfLinealThermalExpansion":"","flammabilityClass":"Noncombustible liquid","molarHeatCapacity":"27.983","numberOfNeutrons":"121","series":"Transition Metal","vaporPressure":{"pa100k":"355.9","pa100kFootnote":"","pa100Footnote":"","pa100":"120.0","pa1Footnote":"","pa1":"42.0","pa1kFootnote":"","pa1k":"175.6","pa10kFootnote":"","pa10Footnote":"","pa10k":"250.3","pa10":"76.6"},"casRegistryNumber":"7439-97-6","oxidationStates":"2, 1","lineSpectra":[{"intensity":"0","airWavelength":"0","spectrum":"TBD"}],"numberOfElectrons":"80","magneticSusceptibility":"-33.5","atomicVolume":"14.82","abundanceCrust":"8.5x10⁻²","boilingPoint":"356.73","discoveryYear":"Known to the ancients","electroNegativity":"2","meltingPoint":"-38.72","elasticModulusBulk":"25","boilingPointFootnote":"","ionizationPotentialSecond":"18.759","conductivityThermal":"0.0834","discoveryLocation":"?","descr":"Silver colored liquid transition metal.","elasticModulusRigidity":"","discoverer":"Known to the ancients","ionicRadius":"1.02","numberOfProtons":"80","abundanceSea":"3x10⁻⁵","atomicMass":"200.59","molarVolume":"14.81","ionizationPotentialFirst":"10.437","hardnessScaleVickers":"","enthalpyOfAtomization":"61.5","density":"13.5336","enthalpyOfFusion":"2.29","opticalRefractiveIndex":"1.000933","qualitativeSolubility":"insoluble in H₂0","name":"Mercury","specificHeat":"0.140","atomicMassUncertainty":2,"valenceElectronPotential":"28.2","covalentRadius":"1.49","electronWorkFunction":"4.49","valenceElectrons":[{"6s":"2"}],"atomicMassKnownAccurately":true,"period":"6","symbol":"Hg","nuclidesAndIsotopes":[{"nuclideSymbol":"","decayEnergy":"","decayModes":"","zp":"","halfLife":"","nn":"","nuclearSpin":"","daughterIsotopes":"","isotopicComposition":"","atomicMass":""}],"elasticModulusYoungs":"","atomicMassFootnote":"","incompatibilities":"Acetylene, ammonia, chlorine dioxide, azides, calcium (amalgam formation), sodium carbide, lithium, rubidium, copper","fillingOrbital":[{"5d":"10"}],"atomicRadius":"1.76","enthalpyOfVaporization":"56.9","heatOfVaporization":"59.229","hardnessScaleBrinell":"","group":"12","atomicNumber":80,"relativeGasDensity":"","ionizationPotentialThird":"34.202","crossSection":"375","electroChemicalEquivalent":"3.742","electronConfiguration":{"3d":"10","5s":"2","4s":"2","3s":"2","4f":"14","5p":"6","2s":"2","4p":"6","1s":"2","3p":"6","2p":"6","5d":"10","4d":"10","6s":"2"},"criticalTemperature":"1477","heatOfFusion":"2.295"}