{"hardnessScaleMohs":"","opticalReflectivity":"","meltingPointFootnote":"","conductivityElectrical":"0.0124","standardCondition":"Solid","crystalStructure":"Hexagonal","coefficientOfLinealThermalExpansion":"0.0000095","flammabilityClass":"","molarHeatCapacity":"27.15","numberOfNeutrons":"98","series":"Lanthanide","vaporPressure":{"pa100k":"2691","pa100kFootnote":"i","pa100Footnote":"i","pa100":"1502","pa1Footnote":"s","pa1":"1159","pa1kFootnote":"i","pa1k":"1767","pa10kFootnote":"i","pa10Footnote":"s","pa10k":"2137","pa10":"1311"},"casRegistryNumber":"7440-60-0","oxidationStates":"3","lineSpectra":[{"intensity":"0","airWavelength":"0","spectrum":"TBD"}],"numberOfElectrons":"67","magneticSusceptibility":"+72900","atomicVolume":"18.7","abundanceCrust":"1.3","boilingPoint":"2700","discoveryYear":"1878","electroNegativity":"1.23","meltingPoint":"1474","elasticModulusBulk":"40","boilingPointFootnote":"","ionizationPotentialSecond":"11.805","conductivityThermal":"0.162","discoveryLocation":"Switzerland","descr":"Silver colored rare earth metal.","elasticModulusRigidity":"26","discoverer":"J.L. Soret","ionicRadius":"0.901","numberOfProtons":"67","abundanceSea":"2.2x10⁻⁷","atomicMass":"164.93032","molarVolume":"18.74","ionizationPotentialFirst":"6.018","hardnessScaleVickers":"481","enthalpyOfAtomization":"301","density":"8.80","enthalpyOfFusion":"11.76","opticalRefractiveIndex":"","qualitativeSolubility":"soluble in diluted acid","name":"Holmium","specificHeat":"0.165","atomicMassUncertainty":2,"valenceElectronPotential":"47.9","covalentRadius":"1.58","electronWorkFunction":"","valenceElectrons":[{"4f":"11"},{"6s":"2"}],"atomicMassKnownAccurately":true,"period":"6","symbol":"Ho","nuclidesAndIsotopes":[{"nuclideSymbol":"","decayEnergy":"","decayModes":"","zp":"","halfLife":"","nn":"","nuclearSpin":"","daughterIsotopes":"","isotopicComposition":"","atomicMass":""}],"elasticModulusYoungs":"65","atomicMassFootnote":"","incompatibilities":"","fillingOrbital":[{"4f":"11"}],"atomicRadius":"2.47","enthalpyOfVaporization":"241","heatOfVaporization":"241","hardnessScaleBrinell":"746","group":"","atomicNumber":67,"relativeGasDensity":"","ionizationPotentialThird":"22.843","crossSection":"65","electroChemicalEquivalent":"2.0512","electronConfiguration":{"3d":"10","5s":"2","4s":"2","3s":"2","4f":"11","5p":"6","2s":"2","4p":"6","1s":"2","3p":"6","2p":"6","4d":"10","6s":"2"},"criticalTemperature":"","heatOfFusion":"12.2"}