{"opticalReflectivity":"","meltingPointFootnote":"","conductivityElectrical":"0.0000000000000008","standardCondition":"Solid","crystalStructure":"Cubic","coefficientOfLinealThermalExpansion":"0.000093","flammabilityClass":"Non-combustible solid.","molarHeatCapacity":"36.888","numberOfNeutrons":"74","series":"Halogen","vaporPressure":{"pa100k":"184.0","pa100kFootnote":"","pa100Footnote":"s","pa100":"35.9","pa1Footnote":"s","pa1":"-12.8","pa1kFootnote":"s","pa1k":"68.7","pa10kFootnote":"s","pa10Footnote":"s","pa10k":"108","pa10":"9.3"},"casRegistryNumber":"7553-56-2","oxidationStates":"±1, 5, 7","lineSpectra":[{"intensity":"0","airWavelength":"0","spectrum":"TBD"}],"numberOfElectrons":"53","magneticSusceptibility":"-90","atomicVolume":"25.74","abundanceCrust":"4.5x10⁻¹","boilingPoint":"184.4","discoveryYear":"1811","electroNegativity":"2.66","meltingPoint":"113.7","elasticModulusBulk":"7.7","boilingPointFootnote":"","ionizationPotentialSecond":"19.131","conductivityThermal":"0.00449","discoveryLocation":"France","descr":"Halogen solid form: shiny grayish-black flakes; gas: violet.","elasticModulusRigidity":"","discoverer":"Bernard Courtois","ionicRadius":"2.2","numberOfProtons":"53","abundanceSea":"6x10⁻²","atomicMass":"126.90447","molarVolume":"25.74","ionizationPotentialFirst":"10.451","enthalpyOfFusion":"7.76","hardnessScale":"","density":"4.933","enthalpyOfAtomization":"106.7","opticalRefractiveIndex":"","qualitativeSolubility":"soluble in benzene, ethanol, ethyl ether, chloroform","name":"Iodine","specificHeat":"0.145","atomicMassUncertainty":3,"valenceElectronPotential":"-6.55","covalentRadius":"1.33","electronWorkFunction":"","valenceElectrons":[{"5s":"2"},{"5p":"5"}],"atomicMassKnownAccurately":true,"period":"5","symbol":"I","nuclidesAndIsotopes":[{"nuclideSymbol":"","decayEnergy":"","decayModes":"","zp":"","halfLife":"","nn":"","nuclearSpin":"","daughterIsotopes":"","isotopicComposition":"","atomicMass":""}],"elasticModulusYoungs":"","atomicMassFootnote":"","incompatibilities":"Ammonia, acetylene, acetaldehyde, powdered aluminum, active metals, liquid chlorine.","fillingOrbital":[{"5p":"5"}],"atomicRadius":"1.32","enthalpyOfVaporization":"20.88","heatOfVaporization":"20.752","group":"17","atomicNumber":53,"relativeGasDensity":"","ionizationPotentialThird":"33","crossSection":"6.2","electroChemicalEquivalent":"4.7348","electronConfiguration":{"4p":"6","5s":"2","3p":"6","4s":"2","2p":"6","3s":"2","2s":"2","3d":"10","1s":"2","4d":"10","5p":"5"},"criticalTemperature":"546","heatOfFusion":"7.824"}