{"hardnessScaleMohs":"1.2","opticalReflectivity":"","meltingPointFootnote":"","conductivityElectrical":"0.116","standardCondition":"Solid","crystalStructure":"Tetragonal","coefficientOfLinealThermalExpansion":"0.0000248","flammabilityClass":"Non-combustible solid (except as dust)","molarHeatCapacity":"26.74","numberOfNeutrons":"66","series":"Metal","vaporPressure":{"pa100k":"2067","pa100kFootnote":"","pa100Footnote":"","pa100":"1212","pa1Footnote":"","pa1":"923","pa1kFootnote":"","pa1k":"1417","pa10kFootnote":"","pa10Footnote":"","pa10k":"1689","pa10":"1052"},"casRegistryNumber":"7440-74-6","oxidationStates":"3","lineSpectra":[{"intensity":"0","airWavelength":"0","spectrum":"TBD"}],"numberOfElectrons":"49","magneticSusceptibility":"-10.2","atomicVolume":"15.7","abundanceCrust":"2.5x10⁻¹","boilingPoint":"2072","discoveryYear":"1863","electroNegativity":"1.78","meltingPoint":"156.60","elasticModulusBulk":"","ionizationPotentialSecond":"18.869","boilingPointFootnote":"","conductivityThermal":"0.816","discoveryLocation":"Germany","descr":"Rare silver-white metal","discoverer":"Ferdinand Reich, H. Richter","ionicRadius":"0.8","numberOfProtons":"49","opticalRefractiveIndex":"","abundanceSea":"2x10⁻²","atomicMass":"114.818","molarVolume":"15.73","ionizationPotentialFirst":"5.786","hardnessScaleVickers":"","enthalpyOfAtomization":"242.7","density":"7.31","enthalpyOfFusion":"38.28","qualitativeSolubility":"soluble in acid","specificHeat":"0.233","name":"Indium","valenceElectronPotential":"54","atomicMassUncertainty":3,"covalentRadius":"1.44","electronWorkFunction":"4.12","valenceElectrons":[{"5s":"2"},{"5p":"1"}],"atomicMassKnownAccurately":true,"period":"5","symbol":"In","nuclidesAndIsotopes":[{"nuclideSymbol":"","decayEnergy":"","decayModes":"","zp":"","halfLife":"","nn":"","nuclearSpin":"","daughterIsotopes":"","isotopicComposition":"","atomicMass":""}],"elasticModulusYoungs":"11","elasticModulusRIgidity":"","atomicMassFootnote":"","incompatibilities":"(Dinitrogen tetraoxide + acetonitrile), mercury(II) bromide (at 662 deg F), sulfer (mixture ignites when heated)","fillingOrbital":[{"5p":"1"}],"atomicRadius":"2.0","enthalpyOfVaporization":"226.4","heatOfVaporization":"231.5","hardnessScaleBrinell":"8.83","group":"13","atomicNumber":49,"relativeGasDensity":"","ionizationPotentialThird":"28.03","crossSection":"194","electroChemicalEquivalent":"1.428","electronConfiguration":{"4p":"6","5s":"2","3p":"6","4s":"2","2p":"6","3s":"2","2s":"2","3d":"10","1s":"2","4d":"10","5p":"1"},"criticalTemperature":"","heatOfFusion":"3.263"}