{"hardnessScaleMohs":"6.5","opticalReflectivity":"78","meltingPointFootnote":"","conductivityElectrical":"0.197","standardCondition":"Solid","crystalStructure":"CubicFace","coefficientOfLinealThermalExpansion":"0.0000066","flammabilityClass":"","molarHeatCapacity":"25.10","numberOfNeutrons":"115","series":"Transition Metal","vaporPressure":{"pa100k":"4386","pa100kFootnote":"","pa100Footnote":"","pa100":"2979","pa1Footnote":"s","pa1":"2440","pa1kFootnote":"","pa1k":"3341","pa10kFootnote":"","pa10Footnote":"","pa10k":"3796","pa10":"2684"},"casRegistryNumber":"7439-88-5","oxidationStates":"2, 3, 4, 6","lineSpectra":[{"intensity":"0","airWavelength":"0","spectrum":"TBD"}],"numberOfElectrons":"77","magneticSusceptibility":"+25","atomicVolume":"8.54","abundanceCrust":"1x10⁻³","boilingPoint":"4428","discoveryYear":"1804","electroNegativity":"2.2","meltingPoint":"2446","elasticModulusBulk":"320","boilingPointFootnote":"","ionizationPotentialSecond":"","conductivityThermal":"1.47","discoveryLocation":"England\/France","descr":"Heavy brittle white transition metal.","elasticModulusRigidity":"210","discoverer":"S.Tenant, A.F.Fourcory, L.N.Vauquelin, H.V.Collet-Descoltils","ionicRadius":"0.625","numberOfProtons":"77","abundanceSea":"","atomicMass":"192.217","molarVolume":"8.49","ionizationPotentialFirst":"9.1","hardnessScaleVickers":"1760","enthalpyOfAtomization":"628","density":"22.5","enthalpyOfFusion":"26.4","opticalRefractiveIndex":"","qualitativeSolubility":"soluble in aqua regia","name":"Iridium","specificHeat":"0.131","atomicMassUncertainty":3,"valenceElectronPotential":"92.2","covalentRadius":"1.27","electronWorkFunction":"5.27","valenceElectrons":[{"5d":"7"},{"6s":"2"}],"atomicMassKnownAccurately":true,"period":"6","symbol":"Ir","nuclidesAndIsotopes":[{"nuclideSymbol":"","decayEnergy":"","decayModes":"","zp":"","halfLife":"","nn":"","nuclearSpin":"","daughterIsotopes":"","isotopicComposition":"","atomicMass":""}],"elasticModulusYoungs":"528","atomicMassFootnote":"","incompatibilities":"","fillingOrbital":[{"5d":"7"}],"atomicRadius":"1.87","enthalpyOfVaporization":"563.6","heatOfVaporization":"604","hardnessScaleBrinell":"1670","group":"9","atomicNumber":77,"relativeGasDensity":"","ionizationPotentialThird":"","crossSection":"425","electroChemicalEquivalent":"1.793","electronConfiguration":{"3d":"10","5s":"2","4s":"2","3s":"2","4f":"14","5p":"6","2s":"2","4p":"6","1s":"2","3p":"6","2p":"6","5d":"7","4d":"10"},"criticalTemperature":"","heatOfFusion":"26.1"}