{"hardnessScaleMohs":"0.4","opticalReflectivity":"","meltingPointFootnote":"","conductivityElectrical":"0.139","standardCondition":"Solid","crystalStructure":"CubicBody","coefficientOfLinealThermalExpansion":"0.000083","flammabilityClass":"","molarHeatCapacity":"29.600","numberOfNeutrons":"20","series":"Alkali Metal","vaporPressure":{"pa10":"256.5","pa100kFootnote":"","pa100Footnote":"","pa100":"328","pa1Footnote":"","pa1":"200.2","pa1kFootnote":"","pa1k":"424","pa10kFootnote":"","pa10Footnote":"","pa10k":"559","pa100k":"756.2"},"casRegistryNumber":"7440-09-07","oxidationStates":"1","lineSpectra":[{"intensity":"250","airWavelength":"4001.2400","spectrum":"K II"},{"intensity":"700","airWavelength":"4044.1400","spectrum":"K I"},{"intensity":"700","airWavelength":"4047.2100","spectrum":"K I"},{"intensity":"250","airWavelength":"4134.7200","spectrum":"K II"},{"intensity":"250","airWavelength":"4149.1900","spectrum":"K II"},{"intensity":"250","airWavelength":"4186.2400","spectrum":"K II"},{"intensity":"250","airWavelength":"4222.9700","spectrum":"K II"},{"intensity":"250","airWavelength":"4225.6700","spectrum":"K II"},{"intensity":"250","airWavelength":"4263.4000","spectrum":"K II"},{"intensity":"250","airWavelength":"4305.0000","spectrum":"K II"},{"intensity":"250","airWavelength":"4309.1000","spectrum":"K II"},{"intensity":"250","airWavelength":"4388.1600","spectrum":"K II"},{"intensity":"250","airWavelength":"4608.4500","spectrum":"K II"},{"intensity":"400","airWavelength":"4641.8800","spectrum":"K I"},{"intensity":"400","airWavelength":"4642.3700","spectrum":"K I"},{"intensity":"150","airWavelength":"4740.9100","spectrum":"K I"},{"intensity":"250","airWavelength":"4744.3500","spectrum":"K I"},{"intensity":"200","airWavelength":"4753.9300","spectrum":"K I"},{"intensity":"300","airWavelength":"4757.3900","spectrum":"K I"},{"intensity":"200","airWavelength":"4786.4900","spectrum":"K I"},{"intensity":"300","airWavelength":"4791.0500","spectrum":"K I"},{"intensity":"250","airWavelength":"4799.7500","spectrum":"K I"},{"intensity":"300","airWavelength":"4804.3500","spectrum":"K I"},{"intensity":"300","airWavelength":"4829.2300","spectrum":"K II"},{"intensity":"300","airWavelength":"4849.8600","spectrum":"K I"},{"intensity":"300","airWavelength":"4856.0900","spectrum":"K I"},{"intensity":"300","airWavelength":"4863.4800","spectrum":"K I"},{"intensity":"400","airWavelength":"4869.7600","spectrum":"K I"},{"intensity":"300","airWavelength":"4942.0200","spectrum":"K I"},{"intensity":"400","airWavelength":"4950.8200","spectrum":"K I"},{"intensity":"400","airWavelength":"4956.1500","spectrum":"K I"},{"intensity":"400","airWavelength":"4965.0300","spectrum":"K I"},{"intensity":"250","airWavelength":"5005.6000","spectrum":"K II"},{"intensity":"250","airWavelength":"5056.2700","spectrum":"K II"},{"intensity":"400","airWavelength":"5084.2300","spectrum":"K I"},{"intensity":"400","airWavelength":"5097.1700","spectrum":"K I"},{"intensity":"400","airWavelength":"5099.2000","spectrum":"K I"},{"intensity":"500","airWavelength":"5112.2500","spectrum":"K I"},{"intensity":"500","airWavelength":"5323.2800","spectrum":"K I"},{"intensity":"500","airWavelength":"5339.6900","spectrum":"K I"},{"intensity":"500","airWavelength":"5342.9700","spectrum":"K I"},{"intensity":"600","airWavelength":"5359.5700","spectrum":"K I"},{"intensity":"600","airWavelength":"5782.3800","spectrum":"K I"},{"intensity":"700","airWavelength":"5801.7500","spectrum":"K I"},{"intensity":"600","airWavelength":"5812.1500","spectrum":"K I"},{"intensity":"700","airWavelength":"5831.8900","spectrum":"K I"},{"intensity":"250","airWavelength":"6120.2700","spectrum":"K II"},{"intensity":"250","airWavelength":"6307.2900","spectrum":"K II"},{"intensity":"800","airWavelength":"6911.0800","spectrum":"K I"},{"intensity":"500","airWavelength":"6936.2800","spectrum":"K I"},{"intensity":"800","airWavelength":"6938.7700","spectrum":"K I"},{"intensity":"300","airWavelength":"6964.1800","spectrum":"K I"},{"intensity":"500","airWavelength":"6964.6700","spectrum":"K I"}],"numberOfElectrons":"19","magneticSusceptibility":"+20.8","atomicVolume":"45.46","abundanceCrust":"2.09x10⁴","boilingPoint":"759","discoveryYear":"1807","electroNegativity":"0.82","meltingPoint":"63.5","elasticModulusBulk":"3.1","boilingPointFootnote":"","ionizationPotentialSecond":"31.625","conductivityThermal":"1.024","discoveryLocation":"England","descr":"Very soft silvery metal.","elasticModulusRigidity":"1.3","discoverer":"Sir Humphrey Davy","ionicRadius":"1.38","numberOfProtons":"19","abundanceSea":"3.99x10²","atomicMass":"39.0983","ionizationPotentialFirst":"4.341","molarVolume":"45.6","hardnessScaleVickers":"","enthalpyOfAtomization":"89.5","density":"0.89","enthalpyOfFusion":"2.32","opticalRefractiveIndex":"","qualitativeSolubility":"reacts with H₂0","name":"Potassium","specificHeat":"0.757","atomicMassUncertainty":1,"valenceElectronPotential":"10.4","covalentRadius":"2.03","electronWorkFunction":"2.3","valenceElectrons":[{"4s":"1"}],"atomicMassKnownAccurately":true,"period":"4","symbol":"K","nuclidesAndIsotopes":[{"nuclideSymbol":"K32","decayEnergy":"","decayModes":"","zp":"","halfLife":"","nn":"13","nuclearSpin":"","daughterIsotopes":"","isotopicComposition":"Syn","atomicMass":"32.022"},{"nuclideSymbol":"K33","decayEnergy":"","decayModes":"","zp":"","halfLife":"","nn":"14","nuclearSpin":"","daughterIsotopes":"","isotopicComposition":"Syn","atomicMass":"33.007"},{"nuclideSymbol":"K34","decayEnergy":"","decayModes":"","zp":"","halfLife":"","nn":"15","nuclearSpin":"","daughterIsotopes":"","isotopicComposition":"Syn","atomicMass":"33.998"},{"nuclideSymbol":"K35","decayEnergy":"5.984","decayModes":"ξ + P","zp":"0.37","halfLife":"190ms","nn":"16","nuclearSpin":"3\/2+","daughterIsotopes":"Cl34","isotopicComposition":"Syn","atomicMass":"34.988"},{"nuclideSymbol":"","decayEnergy":"11.881","decayModes":"ξ","zp":"","halfLife":"190ms","nn":"","nuclearSpin":"","daughterIsotopes":"Ar35","isotopicComposition":"","atomicMass":""},{"nuclideSymbol":"K36","decayEnergy":"4.299","decayModes":"ξ + P","zp":"0.05","halfLife":"342ms","nn":"17","nuclearSpin":"2+","daughterIsotopes":"Cl35","isotopicComposition":"Syn","atomicMass":"35.9813"},{"nuclideSymbol":"","decayEnergy":"6.166","decayModes":"ξ + α","zp":"0.0034","halfLife":"342ms","nn":"","nuclearSpin":"","daughterIsotopes":"S32","isotopicComposition":"","atomicMass":""},{"nuclideSymbol":"","decayEnergy":"12.805","decayModes":"ξ","zp":"","halfLife":"342ms","nn":"","nuclearSpin":"","daughterIsotopes":"Ar36","isotopicComposition":"","atomicMass":""},{"nuclideSymbol":"K37","decayEnergy":"6.149","decayModes":"ξ","zp":"","halfLife":"1.226s","nn":"18","nuclearSpin":"3\/2+","daughterIsotopes":"Ar37","isotopicComposition":"Syn","atomicMass":"36.9734"},{"nuclideSymbol":"K38","decayEnergy":"5.913","decayModes":"ξ","zp":"","halfLife":"7.636m","nn":"19","nuclearSpin":"3+","daughterIsotopes":"Ar38","isotopicComposition":"Syn","atomicMass":"37.9691"},{"nuclideSymbol":"MS","decayEnergy":"6.043","decayModes":"ξ","zp":"","halfLife":"923.9ms","nn":"","nuclearSpin":"0+","daughterIsotopes":"Ar38","isotopicComposition":"Syn","atomicMass":"0.130MeV"},{"nuclideSymbol":"K39","decayEnergy":"","decayModes":"","zp":"","halfLife":"Stable","nn":"20","nuclearSpin":"3\/2+","daughterIsotopes":"","isotopicComposition":"93.258","atomicMass":"38.9637"},{"nuclideSymbol":"K40","decayEnergy":"1.311","decayModes":"β-","zp":"89.28","halfLife":"1.277E⁹y","nn":"21","nuclearSpin":"4-","daughterIsotopes":"Ca40","isotopicComposition":"0.012","atomicMass":"39.964"},{"nuclideSymbol":"","decayEnergy":"1.505","decayModes":"ξ","zp":"10.72","halfLife":"1.277E⁹y","nn":"","nuclearSpin":"","daughterIsotopes":"Ar40","isotopicComposition":"","atomicMass":""},{"nuclideSymbol":"K41","decayEnergy":"","decayModes":"","zp":"","halfLife":"Stable","nn":"22","nuclearSpin":"3\/2+","daughterIsotopes":"","isotopicComposition":"6.73","atomicMass":"40.9618"},{"nuclideSymbol":"K42","decayEnergy":"3.525","decayModes":"β-","zp":"","halfLife":"12.360h","nn":"23","nuclearSpin":"2-","daughterIsotopes":"Ca42","isotopicComposition":"Syn","atomicMass":"41.9624"},{"nuclideSymbol":"K43","decayEnergy":"1.815","decayModes":"β-","zp":"","halfLife":"22.3h","nn":"24","nuclearSpin":"3\/2+","daughterIsotopes":"Ca43","isotopicComposition":"Syn","atomicMass":"42.9607"},{"nuclideSymbol":"K44","decayEnergy":"5.660","decayModes":"β-","zp":"","halfLife":"22.13m","nn":"25","nuclearSpin":"2-","daughterIsotopes":"Ca44","isotopicComposition":"Syn","atomicMass":"43.9616"},{"nuclideSymbol":"K45","decayEnergy":"4.204","decayModes":"β-","zp":"","halfLife":"17.3m","nn":"26","nuclearSpin":"3\/2+","daughterIsotopes":"Ca45","isotopicComposition":"Syn","atomicMass":"44.9607"},{"nuclideSymbol":"K46","decayEnergy":"7.716","decayModes":"β-","zp":"","halfLife":"105s","nn":"27","nuclearSpin":"2-","daughterIsotopes":"Ca46","isotopicComposition":"Syn","atomicMass":"45.962"},{"nuclideSymbol":"K47","decayEnergy":"6.643","decayModes":"β-","zp":"","halfLife":"17.5s","nn":"28","nuclearSpin":"1\/2+","daughterIsotopes":"Ca47","isotopicComposition":"Syn","atomicMass":"46.9617"},{"nuclideSymbol":"K48","decayEnergy":"2.144","decayModes":"β- + N","zp":"1.14","halfLife":"6.8s","nn":"29","nuclearSpin":"2-","daughterIsotopes":"Ca47","isotopicComposition":"Syn","atomicMass":"47.9655"},{"nuclideSymbol":"","decayEnergy":"12.090","decayModes":"β-","zp":"","halfLife":"6.8s","nn":"","nuclearSpin":"","daughterIsotopes":"Ca48","isotopicComposition":"","atomicMass":""},{"nuclideSymbol":"K49","decayEnergy":"5.820","decayModes":"β- + N","zp":"86","halfLife":"1.26s","nn":"30","nuclearSpin":"3\/2+","daughterIsotopes":"Ca48","isotopicComposition":"Syn","atomicMass":"48.9675"},{"nuclideSymbol":"","decayEnergy":"10.970","decayModes":"β-","zp":"","halfLife":"1.26s","nn":"","nuclearSpin":"","daughterIsotopes":"Ca49","isotopicComposition":"","atomicMass":""},{"nuclideSymbol":"K50","decayEnergy":"7.900","decayModes":"β- + N","zp":"29","halfLife":"472ms","nn":"31","nuclearSpin":"1-, 2-","daughterIsotopes":"Ca49","isotopicComposition":"Syn","atomicMass":"49.973"},{"nuclideSymbol":"","decayEnergy":"14.200","decayModes":"β-","zp":"","halfLife":"472ms","nn":"","nuclearSpin":"","daughterIsotopes":"Ca50","isotopicComposition":"","atomicMass":""},{"nuclideSymbol":"K51","decayEnergy":"9.500","decayModes":"β- + N","zp":"47","halfLife":"365ms","nn":"32","nuclearSpin":"2+, 3\/2+","daughterIsotopes":"Ca50","isotopicComposition":"Syn","atomicMass":"50.976"},{"nuclideSymbol":"","decayEnergy":"13.900","decayModes":"β-","zp":"","halfLife":"365ms","nn":"","nuclearSpin":"","daughterIsotopes":"Ca51","isotopicComposition":"","atomicMass":""},{"nuclideSymbol":"K52","decayEnergy":"","decayModes":"β- + N","zp":">88","halfLife":"105ms","nn":"33","nuclearSpin":"","daughterIsotopes":"Ca51","isotopicComposition":"Syn","atomicMass":"51.983"},{"nuclideSymbol":"","decayEnergy":"","decayModes":"β-","zp":"","halfLife":"105ms","nn":"","nuclearSpin":"","daughterIsotopes":"Ca52","isotopicComposition":"","atomicMass":""},{"nuclideSymbol":"K53","decayEnergy":"85","decayModes":"β- + N","zp":"","halfLife":"30ms","nn":"34","nuclearSpin":"3\/2+","daughterIsotopes":"Ca52","isotopicComposition":"Syn","atomicMass":"52.987"},{"nuclideSymbol":"","decayEnergy":"","decayModes":"β-","zp":"","halfLife":"30ms","nn":"","nuclearSpin":"","daughterIsotopes":"Ca53","isotopicComposition":"","atomicMass":""},{"nuclideSymbol":"K54","decayEnergy":"14.200","decayModes":"β- + N","zp":">0","halfLife":"10ms","nn":"35","nuclearSpin":"","daughterIsotopes":"Ca53","isotopicComposition":"Syn","atomicMass":"53.994"},{"nuclideSymbol":"","decayEnergy":"18.000","decayModes":"β-","zp":"","halfLife":"10ms","nn":"","nuclearSpin":"","daughterIsotopes":"Ca54","isotopicComposition":"","atomicMass":""},{"nuclideSymbol":"K55","decayEnergy":"","decayModes":"","zp":"","halfLife":"","nn":"36","nuclearSpin":"","daughterIsotopes":"","isotopicComposition":"Syn","atomicMass":"54.99"}],"elasticModulusYoungs":"","atomicMassFootnote":"g","incompatibilities":"","fillingOrbital":[{"4s":"1"}],"atomicRadius":"2.77","enthalpyOfVaporization":"77.5","heatOfVaporization":"79.87","hardnessScaleBrinell":"0.363","group":"1","atomicNumber":19,"relativeGasDensity":"","ionizationPotentialThird":"45.72","crossSection":"2.1","electroChemicalEquivalent":"1.4587","electronConfiguration":{"3p":"6","4s":"1","2p":"6","3s":"2","2s":"2","1s":"2"},"criticalTemperature":"1950","heatOfFusion":"2.334"}