{"hardnessScaleMohs":"","opticalReflectivity":"","meltingPointFootnote":"triple point @ 73.2 kPa","conductivityElectrical":"","standardCondition":"Gas","crystalStructure":"CubicFace","coefficientOfLinealThermalExpansion":"","flammabilityClass":"","molarHeatCapacity":"20.786","numberOfNeutrons":"48","series":"Noble Gas","vaporPressure":{"pa10":"-208.0","pa100kFootnote":"","pa100Footnote":"s","pa100":"-199.4","pa1Footnote":"s","pa1":"-214.0","pa1kFootnote":"s","pa1k":"-188.9","pa10kFootnote":"s","pa10Footnote":"s","pa10k":"-174.6","pa100k":"-153.6"},"casRegistryNumber":"7439-90-9","oxidationStates":"0","lineSpectra":[{"intensity":"100","airWavelength":"4057.0370","spectrum":"Kr II"},{"intensity":"100","airWavelength":"4065.1280","spectrum":"Kr II"},{"intensity":"150","airWavelength":"4088.3370","spectrum":"Kr II"},{"intensity":"80","airWavelength":"4098.7290","spectrum":"Kr II"},{"intensity":"30","airWavelength":"4109.2480","spectrum":"Kr II"},{"intensity":"80","airWavelength":"4145.1220","spectrum":"Kr II"},{"intensity":"50","airWavelength":"4250.5800","spectrum":"Kr II"},{"intensity":"150","airWavelength":"4273.9694","spectrum":"Kr I"},{"intensity":"15","airWavelength":"4282.9674","spectrum":"Kr I"},{"intensity":"200","airWavelength":"4292.9230","spectrum":"Kr II"},{"intensity":"70","airWavelength":"4300.4900","spectrum":"Kr II"},{"intensity":"150","airWavelength":"4317.8100","spectrum":"Kr II"},{"intensity":"70","airWavelength":"4318.5513","spectrum":"Kr I"},{"intensity":"150","airWavelength":"4319.5794","spectrum":"Kr I"},{"intensity":"50","airWavelength":"4322.9800","spectrum":"Kr II"},{"intensity":"15","airWavelength":"4351.3597","spectrum":"Kr I"},{"intensity":"1000","airWavelength":"4355.4770","spectrum":"Kr II"},{"intensity":"80","airWavelength":"4362.6416","spectrum":"Kr I"},{"intensity":"70","airWavelength":"4369.6900","spectrum":"Kr II"},{"intensity":"130","airWavelength":"4376.1216","spectrum":"Kr I"},{"intensity":"100","airWavelength":"4386.5400","spectrum":"Kr II"},{"intensity":"30","airWavelength":"4399.9663","spectrum":"Kr I"},{"intensity":"15","airWavelength":"4425.1901","spectrum":"Kr I"},{"intensity":"150","airWavelength":"4431.6850","spectrum":"Kr II"},{"intensity":"200","airWavelength":"4436.8120","spectrum":"Kr II"},{"intensity":"100","airWavelength":"4453.9175","spectrum":"Kr I"},{"intensity":"130","airWavelength":"4463.6900","spectrum":"Kr I"},{"intensity":"250","airWavelength":"4475.0140","spectrum":"Kr II"},{"intensity":"130","airWavelength":"4489.8800","spectrum":"Kr II"},{"intensity":"100","airWavelength":"4502.3543","spectrum":"Kr I"},{"intensity":"130","airWavelength":"4523.1400","spectrum":"Kr II"},{"intensity":"70","airWavelength":"4556.6100","spectrum":"Kr II"},{"intensity":"250","airWavelength":"4577.2090","spectrum":"Kr II"},{"intensity":"100","airWavelength":"4582.9780","spectrum":"Kr II"},{"intensity":"50","airWavelength":"4592.8000","spectrum":"Kr II"},{"intensity":"150","airWavelength":"4615.2920","spectrum":"Kr II"},{"intensity":"300","airWavelength":"4619.1660","spectrum":"Kr II"},{"intensity":"250","airWavelength":"4633.8850","spectrum":"Kr II"},{"intensity":"700","airWavelength":"4658.8760","spectrum":"Kr II"},{"intensity":"150","airWavelength":"4680.4060","spectrum":"Kr II"},{"intensity":"30","airWavelength":"4691.3010","spectrum":"Kr II"},{"intensity":"70","airWavelength":"4694.3600","spectrum":"Kr II"},{"intensity":"1000","airWavelength":"4739.0020","spectrum":"Kr II"},{"intensity":"100","airWavelength":"4762.4350","spectrum":"Kr II"},{"intensity":"300","airWavelength":"4765.7440","spectrum":"Kr II"},{"intensity":"100","airWavelength":"4811.7600","spectrum":"Kr II"},{"intensity":"100","airWavelength":"4825.1800","spectrum":"Kr II"},{"intensity":"250","airWavelength":"4832.0770","spectrum":"Kr II"},{"intensity":"250","airWavelength":"4846.6120","spectrum":"Kr II"},{"intensity":"50","airWavelength":"4857.2000","spectrum":"Kr II"},{"intensity":"100","airWavelength":"4945.5900","spectrum":"Kr II"},{"intensity":"70","airWavelength":"5022.4000","spectrum":"Kr II"},{"intensity":"80","airWavelength":"5086.5200","spectrum":"Kr II"},{"intensity":"130","airWavelength":"5125.7300","spectrum":"Kr II"},{"intensity":"150","airWavelength":"5208.3200","spectrum":"Kr II"},{"intensity":"70","airWavelength":"5308.6600","spectrum":"Kr II"},{"intensity":"150","airWavelength":"5333.4100","spectrum":"Kr II"},{"intensity":"70","airWavelength":"5468.1700","spectrum":"Kr II"},{"intensity":"80","airWavelength":"5562.2253","spectrum":"Kr I"},{"intensity":"300","airWavelength":"5570.2894","spectrum":"Kr I"},{"intensity":"13","airWavelength":"5580.3873","spectrum":"Kr I"},{"intensity":"15","airWavelength":"5649.5618","spectrum":"Kr I"},{"intensity":"130","airWavelength":"5681.8900","spectrum":"Kr II"},{"intensity":"70","airWavelength":"5690.3500","spectrum":"Kr II"},{"intensity":"15","airWavelength":"5832.8566","spectrum":"Kr I"},{"intensity":"500","airWavelength":"5870.9160","spectrum":"Kr I"},{"intensity":"70","airWavelength":"5992.2200","spectrum":"Kr II"},{"intensity":"10","airWavelength":"5993.8502","spectrum":"Kr I"},{"intensity":"10","airWavelength":"6056.1263","spectrum":"Kr I"},{"intensity":"100","airWavelength":"6420.1800","spectrum":"Kr II"},{"intensity":"15","airWavelength":"6421.0270","spectrum":"Kr I"},{"intensity":"30","airWavelength":"6456.2889","spectrum":"Kr I"},{"intensity":"50","airWavelength":"6570.0700","spectrum":"Kr II"},{"intensity":"10","airWavelength":"6699.2296","spectrum":"Kr I"},{"intensity":"15","airWavelength":"6904.6788","spectrum":"Kr I"}],"numberOfElectrons":"36","magneticSusceptibility":"-29.1","atomicVolume":"38.9","abundanceCrust":"1x10⁻⁴","boilingPoint":"-153.2","discoveryYear":"1898","electroNegativity":"","meltingPoint":"-157.22","elasticModulusBulk":"","boilingPointFootnote":"","ionizationPotentialSecond":"24.359","conductivityThermal":"0.0000949","discoveryLocation":"Great Britain","descr":"Colorless, odorless, tasteless noble gas.","elasticModulusRigidity":"","discoverer":"Sir William Ramsey, M.W. Travers","ionicRadius":"","numberOfProtons":"36","abundanceSea":"2.1x10⁻⁴","atomicMass":"83.798","ionizationPotentialFirst":"13.999","molarVolume":"32.2","hardnessScaleVickers":"","enthalpyOfAtomization":"","density":"3.425","enthalpyOfFusion":"1.64","opticalRefractiveIndex":"1.000427","qualitativeSolubility":"soluble in H₂0","name":"Krypton","specificHeat":"0.248","atomicMassUncertainty":2,"valenceElectronPotential":"","covalentRadius":"1.12","electronWorkFunction":"","valenceElectrons":[{"4s":"2"},{"4p":"6"}],"atomicMassKnownAccurately":true,"period":"4","symbol":"Kr","nuclidesAndIsotopes":[{"nuclideSymbol":"Kr69","decayEnergy":"","decayModes":"","zp":"","halfLife":"","nn":"33","nuclearSpin":"","daughterIsotopes":"","isotopicComposition":"Syn","atomicMass":"68.965"},{"nuclideSymbol":"Kr70","decayEnergy":"","decayModes":"","zp":"","halfLife":"","nn":"34","nuclearSpin":"0+","daughterIsotopes":"","isotopicComposition":"Syn","atomicMass":"69.956"},{"nuclideSymbol":"Kr71","decayEnergy":"8.600","decayModes":"ξ + P","zp":"5.2","halfLife":"64ms","nn":"35","nuclearSpin":"","daughterIsotopes":"Se70","isotopicComposition":"Syn","atomicMass":"70.951"},{"nuclideSymbol":"","decayEnergy":"10.500","decayModes":"ξ","zp":"","halfLife":"64ms","nn":"","nuclearSpin":"","daughterIsotopes":"Br71","isotopicComposition":"","atomicMass":""},{"nuclideSymbol":"Kr72","decayEnergy":"5.040","decayModes":"ξ","zp":"","halfLife":"17.2s","nn":"36","nuclearSpin":"0+","daughterIsotopes":"Br72","isotopicComposition":"Syn","atomicMass":"71.942"},{"nuclideSymbol":"Kr73","decayEnergy":"3.720","decayModes":"ξ + P","zp":"0.68","halfLife":"27s","nn":"37","nuclearSpin":"5\/2-","daughterIsotopes":"Se72","isotopicComposition":"Syn","atomicMass":"72.939"},{"nuclideSymbol":"","decayEnergy":"6.670","decayModes":"ξ","zp":"","halfLife":"27s","nn":"","nuclearSpin":"","daughterIsotopes":"Br73","isotopicComposition":"","atomicMass":""},{"nuclideSymbol":"Kr74","decayEnergy":"3.140","decayModes":"ξ","zp":"","halfLife":"11.5m","nn":"38","nuclearSpin":"0+","daughterIsotopes":"Br74","isotopicComposition":"Syn","atomicMass":"73.9333"},{"nuclideSymbol":"Kr75","decayEnergy":"4.899","decayModes":"ξ","zp":"","halfLife":"4.3m","nn":"39","nuclearSpin":"5\/2+","daughterIsotopes":"Br75","isotopicComposition":"Syn","atomicMass":"74.931"},{"nuclideSymbol":"Kr76","decayEnergy":"1.311","decayModes":"ξ","zp":"","halfLife":"14.8h","nn":"40","nuclearSpin":"0+","daughterIsotopes":"Br76","isotopicComposition":"Syn","atomicMass":"75.9259"},{"nuclideSymbol":"Kr77","decayEnergy":"3.063","decayModes":"ξ","zp":"","halfLife":"74.4m","nn":"41","nuclearSpin":"5\/2+","daughterIsotopes":"Br77","isotopicComposition":"Syn","atomicMass":"76.9247"},{"nuclideSymbol":"Kr78","decayEnergy":"","decayModes":"","zp":"","halfLife":"Stable","nn":"42","nuclearSpin":"0+","daughterIsotopes":"","isotopicComposition":"0.35","atomicMass":"77.9204"},{"nuclideSymbol":"Kr79","decayEnergy":"1.626","decayModes":"ξ","zp":"","halfLife":"35.04h","nn":"43","nuclearSpin":"1\/2-","daughterIsotopes":"Br79","isotopicComposition":"Syn","atomicMass":"78.9201"},{"nuclideSymbol":"MS","decayEnergy":"0.130","decayModes":"IT","zp":"","halfLife":"50s","nn":"","nuclearSpin":"7\/2+","daughterIsotopes":"","isotopicComposition":"Syn","atomicMass":"0.130MeV"},{"nuclideSymbol":"Kr80","decayEnergy":"","decayModes":"","zp":"","halfLife":"Stable","nn":"44","nuclearSpin":"0+","daughterIsotopes":"","isotopicComposition":"2.25","atomicMass":"79.9164"},{"nuclideSymbol":"Kr81","decayEnergy":"0.281","decayModes":"ξ","zp":"","halfLife":"229000y","nn":"45","nuclearSpin":"7\/2+","daughterIsotopes":"Br81","isotopicComposition":"Syn","atomicMass":"80.9166"},{"nuclideSymbol":"MS","decayEnergy":"0.472","decayModes":"ξ","zp":"0.0025","halfLife":"13.1s","nn":"","nuclearSpin":"1\/2-","daughterIsotopes":"Br81","isotopicComposition":"Syn","atomicMass":"0.190MeV"},{"nuclideSymbol":"","decayEnergy":"0.191","decayModes":"IT","zp":"","halfLife":"13.1s","nn":"","nuclearSpin":"","daughterIsotopes":"","isotopicComposition":"","atomicMass":""},{"nuclideSymbol":"Kr82","decayEnergy":"","decayModes":"","zp":"","halfLife":"Stable","nn":"46","nuclearSpin":"0+","daughterIsotopes":"","isotopicComposition":"11.6","atomicMass":"81.9135"},{"nuclideSymbol":"Kr83","decayEnergy":"","decayModes":"","zp":"","halfLife":"Stable","nn":"47","nuclearSpin":"9\/2+","daughterIsotopes":"","isotopicComposition":"11.5","atomicMass":"82.9141"},{"nuclideSymbol":"MS","decayEnergy":"0.042","decayModes":"IT","zp":"","halfLife":"1.83h","nn":"","nuclearSpin":"1\/2-","daughterIsotopes":"\t ","isotopicComposition":"Syn","atomicMass":"0.042MeV"},{"nuclideSymbol":"Kr84","decayEnergy":"","decayModes":"","zp":"","halfLife":"Stable","nn":"48","nuclearSpin":"0+","daughterIsotopes":"","isotopicComposition":"57","atomicMass":"83.9115"},{"nuclideSymbol":"Kr85","decayEnergy":"0.687","decayModes":"β-","zp":"","halfLife":"10.756y","nn":"49","nuclearSpin":"9\/2+","daughterIsotopes":"Rb85","isotopicComposition":"Syn","atomicMass":"84.9125"},{"nuclideSymbol":"MS","decayEnergy":"0.992","decayModes":"β-","zp":"78.6","halfLife":"4.480h","nn":"","nuclearSpin":"1\/2-","daughterIsotopes":"Rb85","isotopicComposition":"Syn","atomicMass":"0.305MeV"},{"nuclideSymbol":"","decayEnergy":"0.305","decayModes":"IT","zp":"21.4","halfLife":"4.480h","nn":"","nuclearSpin":"","daughterIsotopes":"","isotopicComposition":"","atomicMass":""},{"nuclideSymbol":"Kr86","decayEnergy":"","decayModes":"","zp":"","halfLife":"Stable","nn":"50","nuclearSpin":"0+","daughterIsotopes":"","isotopicComposition":"17.3","atomicMass":"85.9106"},{"nuclideSymbol":"Kr87","decayEnergy":"3.887","decayModes":"β-","zp":"","halfLife":"76.3m","nn":"51","nuclearSpin":"5\/2+","daughterIsotopes":"Rb87","isotopicComposition":"Syn","atomicMass":"86.9134"},{"nuclideSymbol":"Kr88","decayEnergy":"2.914","decayModes":"β-","zp":"","halfLife":"2.84h","nn":"52","nuclearSpin":"0+","daughterIsotopes":"Rb88","isotopicComposition":"Syn","atomicMass":"87.9144"},{"nuclideSymbol":"Kr89","decayEnergy":"4.990","decayModes":"β-","zp":"","halfLife":"3.15m","nn":"53","nuclearSpin":"2+, 5\/2+","daughterIsotopes":"Rb89","isotopicComposition":"Syn","atomicMass":"88.9176"},{"nuclideSymbol":"Kr90","decayEnergy":"4.392","decayModes":"β-","zp":"","halfLife":"32.32s","nn":"54","nuclearSpin":"0+","daughterIsotopes":"Rb90","isotopicComposition":"Syn","atomicMass":"89.9195"},{"nuclideSymbol":"Kr91","decayEnergy":"6.440","decayModes":"β-","zp":"","halfLife":"8.57s","nn":"55","nuclearSpin":"5\/2+","daughterIsotopes":"Rb91","isotopicComposition":"Syn","atomicMass":"90.9234"},{"nuclideSymbol":"Kr92","decayEnergy":"0.889","decayModes":"β- + N","zp":"0.03","halfLife":"1.840s","nn":"56","nuclearSpin":"0+","daughterIsotopes":"Rb91","isotopicComposition":"Syn","atomicMass":"91.9262"},{"nuclideSymbol":"","decayEnergy":"5.987","decayModes":"β-","zp":"","halfLife":"1.840s","nn":"","nuclearSpin":"","daughterIsotopes":"Rb92","isotopicComposition":"","atomicMass":""},{"nuclideSymbol":"Kr93","decayEnergy":"2.680","decayModes":"β- + N","zp":"1.95","halfLife":"1.286s","nn":"57","nuclearSpin":"1\/2+","daughterIsotopes":"Rb92","isotopicComposition":"Syn","atomicMass":"92.931"},{"nuclideSymbol":"","decayEnergy":"8.600","decayModes":"β-","zp":"","halfLife":"1.286s","nn":"","nuclearSpin":"","daughterIsotopes":"Rb93","isotopicComposition":"","atomicMass":""},{"nuclideSymbol":"Kr94","decayEnergy":"3.400","decayModes":"β- + N","zp":"5.7","halfLife":"0.2s","nn":"58","nuclearSpin":"0+","daughterIsotopes":"Rb93","isotopicComposition":"Syn","atomicMass":"93.934"},{"nuclideSymbol":"","decayEnergy":"7.300","decayModes":"β-","zp":"","halfLife":"0.2s","nn":"","nuclearSpin":"","daughterIsotopes":"Rb94","isotopicComposition":"","atomicMass":""},{"nuclideSymbol":"Kr95","decayEnergy":"9.800","decayModes":"β-","zp":"","halfLife":"0.78s","nn":"59","nuclearSpin":"1\/2","daughterIsotopes":"Rb95","isotopicComposition":"Syn","atomicMass":"94.94"},{"nuclideSymbol":"Kr96","decayEnergy":"","decayModes":"","zp":"","halfLife":"","nn":"60","nuclearSpin":"0+","daughterIsotopes":"","isotopicComposition":"Syn","atomicMass":"95.943"},{"nuclideSymbol":"Kr97","decayEnergy":"","decayModes":"β-","zp":"","halfLife":">150ns","nn":"61","nuclearSpin":"3\/2+","daughterIsotopes":"Rb97","isotopicComposition":"Syn","atomicMass":"96.949"}],"elasticModulusYoungs":"","atomicMassFootnote":"g m","incompatibilities":"","fillingOrbital":[{"4p":"6"}],"atomicRadius":"1.03","enthalpyOfVaporization":"9.03","heatOfVaporization":"9.03","hardnessScaleBrinell":"","group":"18","atomicNumber":36,"relativeGasDensity":"","ionizationPotentialThird":"36.95","crossSection":"24.5","electroChemicalEquivalent":"","electronConfiguration":{"4p":"6","3p":"6","4s":"2","2p":"6","3s":"2","2s":"2","3d":"10","1s":"2"},"criticalTemperature":"-63.74","heatOfFusion":"1.638"}