{"hardnessScaleMohs":"2.5","opticalReflectivity":"","meltingPointFootnote":"","conductivityElectrical":"0.0126","standardCondition":"Solid","crystalStructure":"Hexagonal","coefficientOfLinealThermalExpansion":"0.0000052","flammabilityClass":"","molarHeatCapacity":"27.11","numberOfNeutrons":"82","series":"Lanthanide","vaporPressure":{"pa100k":"3453","pa100kFootnote":"i","pa100Footnote":"i","pa100":"2185","pa1Footnote":"i","pa1":"1732","pa1kFootnote":"i","pa1k":"2499","pa10kFootnote":"i","pa10Footnote":"i","pa10k":"2905","pa10":"1935"},"casRegistryNumber":"7439-91-0","oxidationStates":"3","lineSpectra":[{"intensity":"0","airWavelength":"0","spectrum":"TBD"}],"numberOfElectrons":"57","magneticSusceptibility":"+95.9","atomicVolume":"20.73","abundanceCrust":"3.9x10¹","boilingPoint":"3464","discoveryYear":"1899","electroNegativity":"1.1","meltingPoint":"918","elasticModulusBulk":"28","boilingPointFootnote":"","ionizationPotentialSecond":"11.059","conductivityThermal":"0.135","discoveryLocation":"Sweden","descr":"Soft silvery white transition metal.","elasticModulusRigidity":"14","discoverer":"Carl Mosander","ionicRadius":"1.061","numberOfProtons":"57","abundanceSea":"3.4x10⁻⁶","atomicMass":"138.9055","molarVolume":"22.6","ionizationPotentialFirst":"5.58","hardnessScaleVickers":"491","enthalpyOfAtomization":"431","density":"6.15","enthalpyOfFusion":"6.2","opticalRefractiveIndex":"","qualitativeSolubility":"soluble in diluted acid","name":"Lanthanum","specificHeat":"0.195","atomicMassUncertainty":2,"valenceElectronPotential":"40.71","covalentRadius":"1.69","electronWorkFunction":"3.5","valenceElectrons":[{"5p":"1"},{"6s":"2"}],"atomicMassKnownAccurately":true,"period":"6","symbol":"La","nuclidesAndIsotopes":[{"nuclideSymbol":"","decayEnergy":"","decayModes":"","zp":"","halfLife":"","nn":"","nuclearSpin":"","daughterIsotopes":"","isotopicComposition":"","atomicMass":""}],"elasticModulusYoungs":"37","atomicMassFootnote":"g","incompatibilities":"","fillingOrbital":[{"5d":"1"}],"atomicRadius":"2.74","enthalpyOfVaporization":"399.6","heatOfVaporization":"414","hardnessScaleBrinell":"363","group":"3","atomicNumber":57,"relativeGasDensity":"","ionizationPotentialThird":"19.174","crossSection":"8.9","electroChemicalEquivalent":"1.7275","electronConfiguration":{"3d":"10","5s":"2","4s":"2","3s":"2","5p":"6","2s":"2","4p":"6","1s":"2","3p":"6","2p":"6","5d":"1","4d":"10","6s":"2"},"criticalTemperature":"","heatOfFusion":"6.2"}