{"hardnessScaleMohs":"0.6","opticalReflectivity":"","meltingPointFootnote":"","conductivityElectrical":"0.108 10-e6","standardCondition":"Liquid","crystalStructure":"CubicBody","coefficientOfLinealThermalExpansion":"0.00006","flammabilityClass":"Flammable solid","molarHeatCapacity":"24.860","numberOfNeutrons":"4","series":"Alkali Metal","vaporPressure":{"pa10":"612.3","pa100kFootnote":"","pa100Footnote":"","pa100":"722.1","pa1Footnote":"","pa1":"524.3","pa1kFootnote":"","pa1k":"871.2","pa10kFootnote":"","pa10Footnote":"","pa10k":"1064.3","pa100k":"1337.1"},"casRegistryNumber":"7439-93-2","oxidationStates":"1","lineSpectra":[{"intensity":"2","airWavelength":"4132.6240","spectrum":"Li I"},{"intensity":"2","airWavelength":"4132.6250","spectrum":"Li I"},{"intensity":"10","airWavelength":"4155.9460","spectrum":"Li II"},{"intensity":"15","airWavelength":"4325.4190","spectrum":"Li II"},{"intensity":"15","airWavelength":"4325.4710","spectrum":"Li II"},{"intensity":"15","airWavelength":"4602.8310","spectrum":"Li I"},{"intensity":"30","airWavelength":"4602.8980","spectrum":"Li I"},{"intensity":"30","airWavelength":"4602.9020","spectrum":"Li I"},{"intensity":"30","airWavelength":"4671.6510","spectrum":"Li II"},{"intensity":"10","airWavelength":"4671.7050","spectrum":"Li II"},{"intensity":"80","airWavelength":"4678.0560","spectrum":"Li II"},{"intensity":"25","airWavelength":"4678.2900","spectrum":"Li II"},{"intensity":"80","airWavelength":"4788.3630","spectrum":"Li II"},{"intensity":"15","airWavelength":"4881.3200","spectrum":"Li II"},{"intensity":"15","airWavelength":"4881.3860","spectrum":"Li II"},{"intensity":"5","airWavelength":"4881.4900","spectrum":"Li II"},{"intensity":"5","airWavelength":"4971.6650","spectrum":"Li I"},{"intensity":"10","airWavelength":"4971.7480","spectrum":"Li I"},{"intensity":"15","airWavelength":"5037.9150","spectrum":"Li II"},{"intensity":"300","airWavelength":"5483.5600","spectrum":"Li II"},{"intensity":"500","airWavelength":"5484.5000","spectrum":"Li II"},{"intensity":"400","airWavelength":"5485.1100","spectrum":"Li II"},{"intensity":"300","airWavelength":"6103.5420","spectrum":"Li I"},{"intensity":"400","airWavelength":"6103.6540","spectrum":"Li I"},{"intensity":"400","airWavelength":"6103.6670","spectrum":"Li I"},{"intensity":"500","airWavelength":"6707.7750","spectrum":"Li I"},{"intensity":"1000","airWavelength":"6707.9260","spectrum":"Li I"}],"numberOfElectrons":"3","magneticSusceptibility":"+14.2","atomicVolume":"13.1","abundanceCrust":"2.0x10¹","boilingPoint":"1342","discoveryYear":"1817","electroNegativity":"0.98","meltingPoint":"180.50","elasticModulusBulk":"11","boilingPointFootnote":"","ionizationPotentialSecond":"76.638","conductivityThermal":"0.847","discoveryLocation":"Sweden","descr":"Soft silvery-white metal. Lightest of metals.","elasticModulusRigidity":"4.2","discoverer":"Johann Arfvedson","ionicRadius":"0.76","numberOfProtons":"3","abundanceSea":"1.8x10⁻¹","atomicMass":"6.941","ionizationPotentialFirst":"5.392","molarVolume":"13","hardnessScaleVickers":"","enthalpyOfAtomization":"160.7","density":"0.534","enthalpyOfFusion":"3","opticalRefractiveIndex":"","qualitativeSolubility":"reacts with H₂0","name":"Lithium","specificHeat":"3.582","atomicMassUncertainty":2,"valenceElectronPotential":"19","covalentRadius":"1.23","electronWorkFunction":"2.9","valenceElectrons":[{"2s":"1"}],"atomicMassKnownAccurately":true,"period":"2","symbol":"Li","nuclidesAndIsotopes":[{"nuclideSymbol":"Li4","decayEnergy":"","decayModes":"P","zp":"","halfLife":"","nn":"1","nuclearSpin":"2-","daughterIsotopes":"He3","isotopicComposition":"Syn","atomicMass":"4.027"},{"nuclideSymbol":"Li5","decayEnergy":"1.970","decayModes":"α","zp":"","halfLife":"","nn":"2","nuclearSpin":"3\/2-","daughterIsotopes":"H1","isotopicComposition":"Syn","atomicMass":"5.0125"},{"nuclideSymbol":"","decayEnergy":"1.970","decayModes":"P","zp":"","halfLife":"","nn":"","nuclearSpin":"","daughterIsotopes":"He4","isotopicComposition":"","atomicMass":""},{"nuclideSymbol":"Li6","decayEnergy":"","decayModes":"","zp":"","halfLife":"Stable","nn":"3","nuclearSpin":"1+","daughterIsotopes":"","isotopicComposition":"7.5","atomicMass":"6.0151"},{"nuclideSymbol":"Li7","decayEnergy":"","decayModes":"","zp":"","halfLife":"Stable","nn":"4","nuclearSpin":"3\/2-","daughterIsotopes":"","isotopicComposition":"92.5","atomicMass":"7.016"},{"nuclideSymbol":"Li8","decayEnergy":"16.004","decayModes":"β-","zp":"","halfLife":"838ms","nn":"5","nuclearSpin":"2+","daughterIsotopes":"Be8","isotopicComposition":"Syn","atomicMass":"8.0225"},{"nuclideSymbol":"Li9","decayEnergy":"11.941","decayModes":"β- + N","zp":"49.5","halfLife":"178.3ms","nn":"6","nuclearSpin":"3\/2","daughterIsotopes":"Be8","isotopicComposition":"Syn","atomicMass":"9.0268"},{"nuclideSymbol":"","decayEnergy":"13.606","decayModes":"β-","zp":"","halfLife":"178.3ms","nn":"","nuclearSpin":"","daughterIsotopes":"Be9","isotopicComposition":"","atomicMass":""},{"nuclideSymbol":"Li10","decayEnergy":"0.420","decayModes":"N","zp":"","halfLife":"","nn":"7","nuclearSpin":"","daughterIsotopes":"Li9","isotopicComposition":"Syn","atomicMass":"10.0355"},{"nuclideSymbol":"Li11","decayEnergy":"20.610","decayModes":"β-","zp":"","halfLife":"8.5ms","nn":"8","nuclearSpin":"3\/2-","daughterIsotopes":"Be11","isotopicComposition":"Syn","atomicMass":"11.0438"},{"nuclideSymbol":"","decayEnergy":"20.110","decayModes":"β- + N","zp":"","halfLife":"8.5ms","nn":"","nuclearSpin":"","daughterIsotopes":"Be10","isotopicComposition":"","atomicMass":""},{"nuclideSymbol":"Li12","decayEnergy":"","decayModes":"","zp":"","halfLife":"","nn":"9","nuclearSpin":"","daughterIsotopes":"","isotopicComposition":"Syn","atomicMass":"12.05"}],"elasticModulusYoungs":"4.9","atomicMassFootnote":"b g m r","incompatibilities":"water, acids, oxidizing agents","fillingOrbital":[{"2s":"1"}],"atomicRadius":"2.05","enthalpyOfVaporization":"134.7","heatOfVaporization":"145.92","hardnessScaleBrinell":"","group":"1","atomicNumber":3,"relativeGasDensity":"","ionizationPotentialThird":"122.451","crossSection":"71","electroChemicalEquivalent":"0.259","electronConfiguration":{"2s":"1","1s":"2"},"criticalTemperature":"2950","heatOfFusion":"3"}