{"hardnessScaleMohs":"","opticalReflectivity":"","meltingPointFootnote":"","conductivityElectrical":"0.0185","standardCondition":"Solid","crystalStructure":"Hexagonal","coefficientOfLinealThermalExpansion":"0.0000125","flammabilityClass":"","molarHeatCapacity":"28.86","numberOfNeutrons":"104","series":"Lanthanide","vaporPressure":{"pa100k":"3390","pa100kFootnote":"i","pa100Footnote":"","pa100":"2072.8","pa1Footnote":"s","pa1":"1633","pa1kFootnote":"i","pa1k":"2380","pa10kFootnote":"i","pa10Footnote":"","pa10k":"2799","pa10":"1829.8"},"casRegistryNumber":"7439-94-3","oxidationStates":"3","lineSpectra":[{"intensity":"0","airWavelength":"0","spectrum":"TBD"}],"numberOfElectrons":"71","magneticSusceptibility":"+182.9","atomicVolume":"17.78","abundanceCrust":"8x10¹","boilingPoint":"3402","discoveryYear":"1907","electroNegativity":"1.27","meltingPoint":"1663","elasticModulusBulk":"48","boilingPointFootnote":"","ionizationPotentialSecond":"13.888","conductivityThermal":"0.164","discoveryLocation":"France","descr":"Silvery rare earth metal.","elasticModulusRigidity":"27","discoverer":"Georges Urbain","ionicRadius":"0.848","numberOfProtons":"71","abundanceSea":"1.5x10⁻⁷","atomicMass":"174.967","molarVolume":"17.78","ionizationPotentialFirst":"5.4259","hardnessScaleVickers":"1160","enthalpyOfAtomization":"398","density":"9.84","enthalpyOfFusion":"18.7","opticalRefractiveIndex":"","qualitativeSolubility":"soluble in diluted acid","name":"Lutetium","specificHeat":"0.154","atomicMassUncertainty":1,"valenceElectronPotential":"50.9","covalentRadius":"1.56","electronWorkFunction":"3.3","valenceElectrons":[{"4f":"14"},{"6s":"2"}],"atomicMassKnownAccurately":true,"period":"6","symbol":"Lu","nuclidesAndIsotopes":[{"nuclideSymbol":"","decayEnergy":"","decayModes":"","zp":"","halfLife":"","nn":"","nuclearSpin":"","daughterIsotopes":"","isotopicComposition":"","atomicMass":""}],"elasticModulusYoungs":"69","atomicMassFootnote":"g","incompatibilities":"","fillingOrbital":[{"4f":"14"}],"atomicRadius":"2.25","enthalpyOfVaporization":"355.9","heatOfVaporization":"355.9","hardnessScaleBrinell":"893","group":"","atomicNumber":71,"relativeGasDensity":"","ionizationPotentialThird":"20.957","crossSection":"75","electroChemicalEquivalent":"2.17","electronConfiguration":{"3d":"10","5s":"2","4s":"2","3s":"2","4f":"14","5p":"6","2s":"2","4p":"6","1s":"2","3p":"6","2p":"6","5d":"1","4d":"10","6s":"2"},"criticalTemperature":"","heatOfFusion":"18.6"}