{"hardnessScaleMohs":"","opticalReflectivity":"","meltingPointFootnote":"","conductivityElectrical":"","standardCondition":"Synthetic","crystalStructure":"Unknown","coefficientOfLinealThermalExpansion":"","flammabilityClass":"","molarHeatCapacity":"","numberOfNeutrons":"177","series":"Metal","vaporPressure":{"pa100k":"","pa100kFootnote":"","pa100Footnote":"","pa100":"","pa1Footnote":"","pa1":"","pa1kFootnote":"","pa1k":"","pa10kFootnote":"","pa10Footnote":"","pa10k":"","pa10":""},"casRegistryNumber":"54100-71-9","oxidationStates":"","lineSpectra":[{"intensity":"0","airWavelength":"0","spectrum":"TBD"}],"numberOfElectrons":"116","magneticSusceptibility":"","atomicVolume":"","abundanceCrust":"","boilingPoint":"","discoveryYear":"TBD","electroNegativity":"","meltingPoint":"","elasticModulusBulk":"","boilingPointFootnote":"","ionizationPotentialSecond":"","conductivityThermal":"","discoveryLocation":"TBD","descr":"Man made element of which only a few atoms have ever been created.","elasticModulusRigidity":"","discoverer":"TBD","ionicRadius":"","numberOfProtons":"116","abundanceSea":"","atomicMass":"TBD","molarVolume":"","ionizationPotentialFirst":"","hardnessScaleVickers":"","enthalpyOfAtomization":"","density":"","enthalpyOfFusion":"","opticalRefractiveIndex":"","qualitativeSolubility":"","name":"Livermorium","specificHeat":"","valenceElectronPotential":"","covalentRadius":"","electronWorkFunction":"","valenceElectrons":[{"7s":"2"}],"atomicMassKnownAccurately":false,"period":"7","symbol":"Lv","nuclidesAndIsotopes":[{"nuclideSymbol":"","decayEnergy":"","decayModes":"","zp":"","halfLife":"","nn":"","nuclearSpin":"","daughterIsotopes":"","isotopicComposition":"","atomicMass":""}],"elasticModulusYoungs":"","atomicMassFootnote":"a","incompatibilities":"","fillingOrbital":[{"7s":"2"}],"atomicRadius":"","enthalpyOfVaporization":"","heatOfVaporization":"","hardnessScaleBrinell":"","group":"12","atomicNumber":116,"relativeGasDensity":"","ionizationPotentialThird":"","crossSection":"","electroChemicalEquivalent":"","electronConfiguration":{"3d":"10","5s":"2","4s":"2","5f":"14","6p":"6","3s":"2","4f":"14","5p":"6","2s":"2","4p":"6","1s":"2","3p":"6","6d":"10","2p":"6","5d":"10","7s":"2","4d":"10","6s":"2"},"criticalTemperature":"","heatOfFusion":""}