{"hardnessScaleMohs":"2.5","opticalReflectivity":"74","meltingPointFootnote":"","conductivityElectrical":"0.226","standardCondition":"Solid","crystalStructure":"Hexagonal","coefficientOfLinealThermalExpansion":"0.0000271","flammabilityClass":"","molarHeatCapacity":"24.869","numberOfNeutrons":"12","series":"Alkali Earth Metal","vaporPressure":{"pa10":"500","pa100kFootnote":"","pa100Footnote":"s","pa100":"588","pa1Footnote":"s","pa1":"428","pa1kFootnote":"","pa1k":"698","pa10kFootnote":"","pa10Footnote":"s","pa10k":"859","pa100k":"1088"},"casRegistryNumber":"7439-95-4","oxidationStates":"2","lineSpectra":[{"intensity":"2","airWavelength":"4167.2710","spectrum":"Mg I"},{"intensity":"3","airWavelength":"4351.9060","spectrum":"Mg I"},{"intensity":"10","airWavelength":"4390.5720","spectrum":"Mg II"},{"intensity":"14","airWavelength":"4481.1260","spectrum":"Mg II"},{"intensity":"13","airWavelength":"4481.3250","spectrum":"Mg II"},{"intensity":"5","airWavelength":"4571.0960","spectrum":"Mg I"},{"intensity":"12","airWavelength":"5167.3220","spectrum":"Mg I"},{"intensity":"40","airWavelength":"5172.6840","spectrum":"Mg I"},{"intensity":"70","airWavelength":"5183.6040","spectrum":"Mg I"},{"intensity":"5","airWavelength":"5711.0880","spectrum":"Mg I"},{"intensity":"10","airWavelength":"6346.7420","spectrum":"Mg II"},{"intensity":"11","airWavelength":"6545.9730","spectrum":"Mg II"}],"numberOfElectrons":"12","magneticSusceptibility":"+13.1","atomicVolume":"13.97","abundanceCrust":"2.33x10⁴","boilingPoint":"1090","discoveryYear":"1808","electroNegativity":"1.31","meltingPoint":"650","elasticModulusBulk":"45","boilingPointFootnote":"","ionizationPotentialSecond":"15.035","conductivityThermal":"1.56","discoveryLocation":"England","descr":"Grayish-white metal.","elasticModulusRigidity":"17","discoverer":"Sir Humphrey Davy","ionicRadius":"0.72","numberOfProtons":"12","abundanceSea":"1.29x10³","atomicMass":"24.3050","ionizationPotentialFirst":"7.646","molarVolume":"13.97","hardnessScaleVickers":"","enthalpyOfAtomization":"148.5","density":"1.74","enthalpyOfFusion":"8.95","opticalRefractiveIndex":"","qualitativeSolubility":"soluble in diluted acid","name":"Magnesium","specificHeat":"1.023","atomicMassUncertainty":6,"valenceElectronPotential":"","covalentRadius":"1.36","electronWorkFunction":"3.66","valenceElectrons":[{"3s":"2"}],"atomicMassKnownAccurately":true,"period":"3","symbol":"Mg","nuclidesAndIsotopes":[{"nuclideSymbol":"Mg20","decayEnergy":"8.530","decayModes":"ξ + P","zp":">=3","halfLife":"95ms","nn":"8","nuclearSpin":"0+","daughterIsotopes":"Ne19","isotopicComposition":"Syn","atomicMass":"20.0189"},{"nuclideSymbol":"","decayEnergy":"10.730","decayModes":"ξ","zp":"","halfLife":"95ms","nn":"","nuclearSpin":"","daughterIsotopes":"Na20","isotopicComposition":"","atomicMass":""},{"nuclideSymbol":"Mg21","decayEnergy":"10.665","decayModes":"ξ + P","zp":"29.3","halfLife":"122ms","nn":"9","nuclearSpin":"5\/2+, 3\/2+","daughterIsotopes":"Ne20","isotopicComposition":"Syn","atomicMass":"21.0117"},{"nuclideSymbol":"","decayEnergy":"13.096","decayModes":"ξ","zp":"","halfLife":"122ms","nn":"","nuclearSpin":"","daughterIsotopes":"Na21","isotopicComposition":"","atomicMass":""},{"nuclideSymbol":"Mg22","decayEnergy":"4.786","decayModes":"ξ","zp":"","halfLife":"3.857s","nn":"10","nuclearSpin":"0+","daughterIsotopes":"Na22","isotopicComposition":"Syn","atomicMass":"21.9996"},{"nuclideSymbol":"Mg23","decayEnergy":"4.057","decayModes":"ξ","zp":"","halfLife":"11.317s","nn":"11","nuclearSpin":"3\/2+","daughterIsotopes":"Na23","isotopicComposition":"Syn","atomicMass":"22.9941"},{"nuclideSymbol":"Mg24","decayEnergy":"","decayModes":"","zp":"","halfLife":"Stable","nn":"12","nuclearSpin":"0+","daughterIsotopes":"","isotopicComposition":"78.99","atomicMass":"23.985"},{"nuclideSymbol":"Mg25","decayEnergy":"","decayModes":"","zp":"","halfLife":"Stable","nn":"13","nuclearSpin":"5\/2+","daughterIsotopes":"","isotopicComposition":"10","atomicMass":"24.9858"},{"nuclideSymbol":"Mg26","decayEnergy":"","decayModes":"","zp":"","halfLife":"Stable","nn":"14","nuclearSpin":"0+","daughterIsotopes":"","isotopicComposition":"11.01","atomicMass":"25.9826"},{"nuclideSymbol":"Mg27","decayEnergy":"2.610","decayModes":"β-","zp":"","halfLife":"9.458m","nn":"15","nuclearSpin":"1\/2+","daughterIsotopes":"Al27","isotopicComposition":"Syn","atomicMass":"26.9843"},{"nuclideSymbol":"Mg28","decayEnergy":"1.832","decayModes":"β-","zp":"","halfLife":"20.91h","nn":"16","nuclearSpin":"0+","daughterIsotopes":"Al28","isotopicComposition":"Syn","atomicMass":"27.9839"},{"nuclideSymbol":"Mg29","decayEnergy":"7.550","decayModes":"β-","zp":"","halfLife":"1.3s","nn":"17","nuclearSpin":"3\/2+","daughterIsotopes":"Al29","isotopicComposition":"Syn","atomicMass":"28.9886"},{"nuclideSymbol":"Mg30","decayEnergy":"6.990","decayModes":"β-","zp":"","halfLife":"335ms","nn":"18","nuclearSpin":"0+","daughterIsotopes":"Al30","isotopicComposition":"Syn","atomicMass":"29.9905"},{"nuclideSymbol":"Mg31","decayEnergy":"4.590","decayModes":"β- + N","zp":"1.7","halfLife":"230ms","nn":"19","nuclearSpin":"","daughterIsotopes":"Al30","isotopicComposition":"Syn","atomicMass":"30.9965"},{"nuclideSymbol":"","decayEnergy":"11.740","decayModes":"β-","zp":"","halfLife":"230ms","nn":"","nuclearSpin":"","daughterIsotopes":"Al31","isotopicComposition":"","atomicMass":""},{"nuclideSymbol":"Mg32","decayEnergy":"6.090","decayModes":"β- + N","zp":"2.4","halfLife":"120ms","nn":"20","nuclearSpin":"0+","daughterIsotopes":"Al31","isotopicComposition":"Syn","atomicMass":"31.999"},{"nuclideSymbol":"","decayEnergy":"10.270","decayModes":"β-","zp":"","halfLife":"120ms","nn":"","nuclearSpin":"","daughterIsotopes":"Al32","isotopicComposition":"","atomicMass":""},{"nuclideSymbol":"Mg33","decayEnergy":"8.190","decayModes":"β- + N","zp":"17","halfLife":"90ms","nn":"21","nuclearSpin":"","daughterIsotopes":"Al32","isotopicComposition":"Syn","atomicMass":"33.006"},{"nuclideSymbol":"","decayEnergy":"13.710","decayModes":"β-","zp":"","halfLife":"90ms","nn":"","nuclearSpin":"","daughterIsotopes":"Al33","isotopicComposition":"","atomicMass":""},{"nuclideSymbol":"Mg34","decayEnergy":"11.300","decayModes":"β-","zp":"","halfLife":"20ms","nn":"22","nuclearSpin":"0+","daughterIsotopes":"Al34","isotopicComposition":"Syn","atomicMass":"34.009"},{"nuclideSymbol":"","decayEnergy":"8.900","decayModes":"β- + N","zp":"","halfLife":"20ms","nn":"","nuclearSpin":"","daughterIsotopes":"Al33","isotopicComposition":"","atomicMass":""},{"nuclideSymbol":"Mg35","decayEnergy":"","decayModes":"","zp":"","halfLife":">200ns","nn":"23","nuclearSpin":"","daughterIsotopes":"","isotopicComposition":"Syn","atomicMass":"35.017"},{"nuclideSymbol":"Mg36","decayEnergy":"","decayModes":"","zp":"","halfLife":">200ns","nn":"24","nuclearSpin":"0+","daughterIsotopes":"","isotopicComposition":"Syn","atomicMass":"36.022"},{"nuclideSymbol":"Mg37","decayEnergy":"","decayModes":"","zp":"","halfLife":"","nn":"25","nuclearSpin":"","daughterIsotopes":"","isotopicComposition":"Syn","atomicMass":"37.031"}],"elasticModulusYoungs":"45","atomicMassFootnote":"","incompatibilities":"","fillingOrbital":[{"3s":"2"}],"atomicRadius":"1.72","enthalpyOfVaporization":"128.7","heatOfVaporization":"127.4","hardnessScaleBrinell":"260","group":"2","atomicNumber":12,"relativeGasDensity":"","ionizationPotentialThird":"80.143","crossSection":"64","electroChemicalEquivalent":"0.45341","electronConfiguration":{"2p":"6","3s":"2","2s":"2","1s":"2"},"criticalTemperature":"","heatOfFusion":"8.954"}