{"hardnessScaleMohs":"6","opticalReflectivity":"","meltingPointFootnote":"","conductivityElectrical":"0.00695","standardCondition":"Solid","crystalStructure":"CubicBody","coefficientOfLinealThermalExpansion":"0.00022","flammabilityClass":"Metal: Comustable Solid","molarHeatCapacity":"26.32","numberOfNeutrons":"30","series":"Transition Metal","vaporPressure":{"pa10":"1074","pa100kFootnote":"","pa100Footnote":"s","pa100":"1220","pa1Footnote":"s","pa1":"955","pa1kFootnote":"","pa1k":"1418","pa10kFootnote":"","pa10Footnote":"s","pa10k":"1682","pa100k":"2060"},"casRegistryNumber":"7439-96-5","oxidationStates":"7, 6, 4, 2, 3","lineSpectra":[{"intensity":"60","airWavelength":"4018.1060","spectrum":"Mn I"},{"intensity":"1000","airWavelength":"4030.7550","spectrum":"Mn I"},{"intensity":"700","airWavelength":"4033.0680","spectrum":"Mn I"},{"intensity":"400","airWavelength":"4034.4850","spectrum":"Mn I"},{"intensity":"60","airWavelength":"4035.7290","spectrum":"Mn I"},{"intensity":"200","airWavelength":"4041.3570","spectrum":"Mn I"},{"intensity":"40","airWavelength":"4048.7470","spectrum":"Mn I"},{"intensity":"70","airWavelength":"4055.5480","spectrum":"Mn I"},{"intensity":"40","airWavelength":"4058.9360","spectrum":"Mn I"},{"intensity":"25","airWavelength":"4061.7370","spectrum":"Mn I"},{"intensity":"25","airWavelength":"4063.5300","spectrum":"Mn I"},{"intensity":"11","airWavelength":"4070.2800","spectrum":"Mn I"},{"intensity":"25","airWavelength":"4079.2410","spectrum":"Mn I"},{"intensity":"25","airWavelength":"4079.4150","spectrum":"Mn I"},{"intensity":"40","airWavelength":"4082.9450","spectrum":"Mn I"},{"intensity":"40","airWavelength":"4083.6340","spectrum":"Mn I"},{"intensity":"14","airWavelength":"4235.1540","spectrum":"Mn I"},{"intensity":"20","airWavelength":"4235.3000","spectrum":"Mn I"},{"intensity":"11","airWavelength":"4257.6690","spectrum":"Mn I"},{"intensity":"11","airWavelength":"4265.9280","spectrum":"Mn I"},{"intensity":"10","airWavelength":"4281.1000","spectrum":"Mn I"},{"intensity":"4","airWavelength":"4326.6330","spectrum":"Mn II"},{"intensity":"13","airWavelength":"4414.8870","spectrum":"Mn I"},{"intensity":"30","airWavelength":"4451.5750","spectrum":"Mn I"},{"intensity":"10","airWavelength":"4458.2630","spectrum":"Mn I"},{"intensity":"20","airWavelength":"4462.0330","spectrum":"Mn I"},{"intensity":"11","airWavelength":"4464.6790","spectrum":"Mn I"},{"intensity":"9","airWavelength":"4498.8970","spectrum":"Mn I"},{"intensity":"9","airWavelength":"4502.2230","spectrum":"Mn I"},{"intensity":"40","airWavelength":"4754.0480","spectrum":"Mn I"},{"intensity":"30","airWavelength":"4762.3760","spectrum":"Mn I"},{"intensity":"11","airWavelength":"4765.8560","spectrum":"Mn I"},{"intensity":"20","airWavelength":"4766.4260","spectrum":"Mn I"},{"intensity":"30","airWavelength":"4783.4320","spectrum":"Mn I"},{"intensity":"40","airWavelength":"4823.5280","spectrum":"Mn I"},{"intensity":"200","airWavelength":"5079.2000","spectrum":"Mn III"},{"intensity":"150","airWavelength":"5100.0300","spectrum":"Mn III"},{"intensity":"150","airWavelength":"5454.0700","spectrum":"Mn III"},{"intensity":"200","airWavelength":"5474.6800","spectrum":"Mn III"},{"intensity":"200","airWavelength":"5946.6500","spectrum":"Mn III"},{"intensity":"11","airWavelength":"6021.7870","spectrum":"Mn I"},{"intensity":"200","airWavelength":"6231.2100","spectrum":"Mn III"}],"numberOfElectrons":"25","magneticSusceptibility":"+511","atomicVolume":"1.39","abundanceCrust":"9.50x10²","boilingPoint":"2061","discoveryYear":"1774","electroNegativity":"1.55","meltingPoint":"1246","elasticModulusBulk":"120","boilingPointFootnote":"","ionizationPotentialSecond":"25.64","conductivityThermal":"0.0782","discoveryLocation":"Sweden","descr":"Silver-gray transition metal with a pinkish tinge","elasticModulusRigidity":"","discoverer":"Johann Gahn","ionicRadius":"0.46","numberOfProtons":"25","abundanceSea":"2x10⁻⁴","atomicMass":"54.938049","ionizationPotentialFirst":"7.435","molarVolume":"7.35","hardnessScaleVickers":"","enthalpyOfAtomization":"280.3","density":"7.3","enthalpyOfFusion":"14.64","opticalRefractiveIndex":"","qualitativeSolubility":"soluble in diluted acids","name":"Manganese","specificHeat":"0.479","atomicMassUncertainty":9,"valenceElectronPotential":"220","covalentRadius":"1.17","electronWorkFunction":"4.1","valenceElectrons":[{"3d":"5"},{"4s":"2"}],"atomicMassKnownAccurately":true,"period":"4","symbol":"Mn","nuclidesAndIsotopes":[{"nuclideSymbol":"Mn44","decayEnergy":"","decayModes":"","zp":"","halfLife":"","nn":"19","nuclearSpin":"","daughterIsotopes":"","isotopicComposition":"Syn","atomicMass":"44.007"},{"nuclideSymbol":"Mn45","decayEnergy":"","decayModes":"","zp":"","halfLife":"","nn":"20","nuclearSpin":"","daughterIsotopes":"","isotopicComposition":"Syn","atomicMass":"44.995"},{"nuclideSymbol":"Mn46","decayEnergy":"12.210","decayModes":"ξ + P","zp":">32","halfLife":"41ms","nn":"21","nuclearSpin":"4+","daughterIsotopes":"V45","isotopicComposition":"Syn","atomicMass":"45.987"},{"nuclideSymbol":"","decayEnergy":"17.100","decayModes":"ξ","zp":"","halfLife":"41ms","nn":"","nuclearSpin":"","daughterIsotopes":"Cr46","isotopicComposition":"","atomicMass":""},{"nuclideSymbol":"Mn47","decayEnergy":"7.520","decayModes":"ξ + P","zp":">3.4","halfLife":"100ms","nn":"22","nuclearSpin":"","daughterIsotopes":"V46","isotopicComposition":"Syn","atomicMass":"46.976"},{"nuclideSymbol":"","decayEnergy":"12.290","decayModes":"ξ","zp":"","halfLife":"100ms","nn":"","nuclearSpin":"","daughterIsotopes":"Cr47","isotopicComposition":"","atomicMass":""},{"nuclideSymbol":"Mn48","decayEnergy":"5.720","decayModes":"ξ + P","zp":"0.28","halfLife":"158.1ms","nn":"23","nuclearSpin":"4+","daughterIsotopes":"V47","isotopicComposition":"Syn","atomicMass":"47.9689"},{"nuclideSymbol":"","decayEnergy":"13.820","decayModes":"ξ","zp":"","halfLife":"158.1ms","nn":"","nuclearSpin":"","daughterIsotopes":"Cr48","isotopicComposition":"","atomicMass":""},{"nuclideSymbol":"","decayEnergy":"6.130","decayModes":"ξ + α","zp":"","halfLife":"158.1ms","nn":"","nuclearSpin":"","daughterIsotopes":"Ti44","isotopicComposition":"","atomicMass":""},{"nuclideSymbol":"Mn49","decayEnergy":"7.715","decayModes":"ξ","zp":"","halfLife":"382ms","nn":"24","nuclearSpin":"5\/2-","daughterIsotopes":"Cr49","isotopicComposition":"Syn","atomicMass":"48.9596"},{"nuclideSymbol":"Mn50","decayEnergy":"7.633","decayModes":"ξ","zp":"","halfLife":"283.88ms","nn":"25","nuclearSpin":"0+","daughterIsotopes":"Cr50","isotopicComposition":"Syn","atomicMass":"49.9542"},{"nuclideSymbol":"MS","decayEnergy":"7.862","decayModes":"ξ","zp":"","halfLife":"1.75m","nn":"","nuclearSpin":"5+","daughterIsotopes":"Cr50","isotopicComposition":"Syn","atomicMass":"0.229MeV"},{"nuclideSymbol":"Mn51","decayEnergy":"3.208","decayModes":"ξ","zp":"","halfLife":"46.2m","nn":"26","nuclearSpin":"5\/2-","daughterIsotopes":"Cr51","isotopicComposition":"Syn","atomicMass":"50.9482"},{"nuclideSymbol":"Mn52","decayEnergy":"4.712","decayModes":"ξ","zp":"","halfLife":"5.591d","nn":"27","nuclearSpin":"6+","daughterIsotopes":"Cr52","isotopicComposition":"Syn","atomicMass":"51.9456"},{"nuclideSymbol":"MS","decayEnergy":"5.090","decayModes":"ξ","zp":"98.25","halfLife":"21.1m","nn":"","nuclearSpin":"2+","daughterIsotopes":"Cr52","isotopicComposition":"Syn","atomicMass":"0.378MeV"},{"nuclideSymbol":"","decayEnergy":"0.378","decayModes":"IT","zp":"1.75","halfLife":"21.1m","nn":"","nuclearSpin":"","daughterIsotopes":"","isotopicComposition":"","atomicMass":""},{"nuclideSymbol":"Mn53","decayEnergy":"0.597","decayModes":"ξ","zp":"","halfLife":"3740000y","nn":"28","nuclearSpin":"7\/2-","daughterIsotopes":"Cr53","isotopicComposition":"Syn","atomicMass":"52.9413"},{"nuclideSymbol":"Mn54","decayEnergy":"0.697","decayModes":"β-","zp":"<0.0002","halfLife":"312.3d","nn":"29","nuclearSpin":"3+","daughterIsotopes":"Fe54","isotopicComposition":"Syn","atomicMass":"53.9404"},{"nuclideSymbol":"","decayEnergy":"1.377","decayModes":"ξ","zp":"","halfLife":"312.3d","nn":"","nuclearSpin":"","daughterIsotopes":"Cr54","isotopicComposition":"","atomicMass":""},{"nuclideSymbol":"Mn55","decayEnergy":"","decayModes":"","zp":"","halfLife":"Stable","nn":"30","nuclearSpin":"5\/2-","daughterIsotopes":"","isotopicComposition":"100","atomicMass":"54.9381"},{"nuclideSymbol":"Mn56","decayEnergy":"3.695","decayModes":"β-","zp":"","halfLife":"2.5785h","nn":"31","nuclearSpin":"3+","daughterIsotopes":"Fe56","isotopicComposition":"Syn","atomicMass":"55.9389"},{"nuclideSymbol":"Mn57","decayEnergy":"2.691","decayModes":"β-","zp":"","halfLife":"85.4s","nn":"32","nuclearSpin":"5\/2-","daughterIsotopes":"Fe57","isotopicComposition":"Syn","atomicMass":"56.9383"},{"nuclideSymbol":"Mn58","decayEnergy":"6.250","decayModes":"β-","zp":"","halfLife":"3s","nn":"33","nuclearSpin":"1+","daughterIsotopes":"Fe58","isotopicComposition":"Syn","atomicMass":"57.931"},{"nuclideSymbol":"MS","decayEnergy":"6.322","decayModes":"β-","zp":"~80","halfLife":"65.2s","nn":"","nuclearSpin":"4+","daughterIsotopes":"Fe58","isotopicComposition":"Syn","atomicMass":"0.071MeV"},{"nuclideSymbol":"","decayEnergy":"0.072","decayModes":"IT","zp":"~20","halfLife":"65.2s","nn":"","nuclearSpin":"","daughterIsotopes":"","isotopicComposition":"","atomicMass":""},{"nuclideSymbol":"Mn59","decayEnergy":"5.190","decayModes":"β-","zp":"","halfLife":"4.6s","nn":"34","nuclearSpin":"2-, 5\/2-","daughterIsotopes":"Fe59","isotopicComposition":"Syn","atomicMass":"58.9404"},{"nuclideSymbol":"Mn60","decayEnergy":"8.630","decayModes":"β-","zp":"","halfLife":"51s","nn":"35","nuclearSpin":"0+","daughterIsotopes":"Fe60","isotopicComposition":"Syn","atomicMass":"59.943"},{"nuclideSymbol":"MS","decayEnergy":"8.902","decayModes":"β-","zp":"88.5","halfLife":"1.77s","nn":"","nuclearSpin":"3+","daughterIsotopes":"Fe60","isotopicComposition":"Syn","atomicMass":"0.272MeV"},{"nuclideSymbol":"","decayEnergy":"0.272","decayModes":"IT","zp":"11.5","halfLife":"1.77s","nn":"","nuclearSpin":"","daughterIsotopes":"Mn60","isotopicComposition":"","atomicMass":""},{"nuclideSymbol":"Mn61","decayEnergy":"7.350","decayModes":"β-","zp":"","halfLife":"0.71s","nn":"36","nuclearSpin":"5\/2-","daughterIsotopes":"Fe61","isotopicComposition":"Syn","atomicMass":"60.944"},{"nuclideSymbol":"Mn62","decayEnergy":"10.400","decayModes":"β-","zp":"","halfLife":"0.88s","nn":"37","nuclearSpin":"3+","daughterIsotopes":"Fe62","isotopicComposition":"Syn","atomicMass":"61.948"},{"nuclideSymbol":"Mn63","decayEnergy":"8.800","decayModes":"β-","zp":"","halfLife":"0.25s","nn":"38","nuclearSpin":"","daughterIsotopes":"Fe63","isotopicComposition":"Syn","atomicMass":"62.95"},{"nuclideSymbol":"Mn64","decayEnergy":"","decayModes":"","zp":"","halfLife":"140ms","nn":"39","nuclearSpin":"3+","daughterIsotopes":"","isotopicComposition":"Syn","atomicMass":"63.954"},{"nuclideSymbol":"Mn65","decayEnergy":"10.400","decayModes":"β-","zp":"","halfLife":"110ms","nn":"40","nuclearSpin":"5\/2-","daughterIsotopes":"Fe65","isotopicComposition":"Syn","atomicMass":"64.956"},{"nuclideSymbol":"Mn66","decayEnergy":"","decayModes":"","zp":"","halfLife":"90ms","nn":"41","nuclearSpin":"","daughterIsotopes":"","isotopicComposition":"Syn","atomicMass":"65.961"},{"nuclideSymbol":"Mn67","decayEnergy":"","decayModes":"","zp":"","halfLife":"","nn":"42","nuclearSpin":"","daughterIsotopes":"","isotopicComposition":"Syn","atomicMass":"66.964"}],"elasticModulusYoungs":"198","atomicMassFootnote":"","incompatibilities":"Oxidizers","fillingOrbital":[{"3d":"5"}],"atomicRadius":"1.79","enthalpyOfVaporization":"219.7","heatOfVaporization":"226","hardnessScaleBrinell":"196","group":"7","atomicNumber":25,"relativeGasDensity":"","ionizationPotentialThird":"33.667","crossSection":"13.3","electroChemicalEquivalent":"0.29282","electronConfiguration":{"3p":"6","4s":"2","2p":"6","3s":"2","2s":"2","3d":"5","1s":"2"},"criticalTemperature":"","heatOfFusion":"12.05"}