{"hardnessScaleMohs":"5.5","opticalReflectivity":"58","meltingPointFootnote":"","conductivityElectrical":"0.187","standardCondition":"Solid","crystalStructure":"CubicBody","coefficientOfLinealThermalExpansion":"0.0000066","flammabilityClass":"Combustible solid in powder form.","molarHeatCapacity":"24.06","numberOfNeutrons":"54","series":"Transition Metal","vaporPressure":{"pa10":"2721","pa100kFootnote":"","pa100Footnote":"","pa100":"3039","pa1Footnote":"s","pa1":"2469","pa1kFootnote":"","pa1k":"3434","pa10kFootnote":"","pa10Footnote":"","pa10k":"3939","pa100k":"4606"},"casRegistryNumber":"7439-98-7","oxidationStates":"6, 5, 4, 3, 2","lineSpectra":[{"intensity":"0","airWavelength":"0","spectrum":"TBD"}],"numberOfElectrons":"42","magneticSusceptibility":"+72","atomicVolume":"9.4","abundanceCrust":"1.2","boilingPoint":"4639","discoveryYear":"1778","electroNegativity":"2.16","meltingPoint":"2623","elasticModulusBulk":"230","boilingPointFootnote":"","ionizationPotentialSecond":"16.461","conductivityThermal":"1.38","discoveryLocation":"Sweden","descr":"Hard silvery-white transition metal.","elasticModulusRigidity":"20","discoverer":"Carl Wilhelm Scheele","ionicRadius":"0.65","numberOfProtons":"42","abundanceSea":"1x10⁻²","atomicMass":"95.94","molarVolume":"9.41","ionizationPotentialFirst":"7.099","hardnessScaleVickers":"1630","enthalpyOfAtomization":"653","density":"10.2","enthalpyOfFusion":"27.61","opticalRefractiveIndex":"","qualitativeSolubility":"insoluble in H₂0, diluted acid, alkaline solutions","name":"Molybdenum","specificHeat":"0.251","atomicMassUncertainty":2,"valenceElectronPotential":"88.6","covalentRadius":"1.3","electronWorkFunction":"4.6","valenceElectrons":[{"4d":"5"},{"5s":"1"}],"atomicMassKnownAccurately":true,"period":"5","symbol":"Mo","nuclidesAndIsotopes":[{"nuclideSymbol":"Mo83","decayEnergy":"","decayModes":"","zp":"","halfLife":"","nn":"41","nuclearSpin":"","daughterIsotopes":"","isotopicComposition":"Syn","atomicMass":"82.949"},{"nuclideSymbol":"Mo84","decayEnergy":"6.100","decayModes":"ξ","zp":"","halfLife":">150ns","nn":"42","nuclearSpin":"0+","daughterIsotopes":"Nb84","isotopicComposition":"Syn","atomicMass":"83.94"},{"nuclideSymbol":"Mo85","decayEnergy":"","decayModes":"","zp":"","halfLife":">150ns","nn":"43","nuclearSpin":"","daughterIsotopes":"","isotopicComposition":"Syn","atomicMass":"84.937"},{"nuclideSymbol":"Mo86","decayEnergy":"5.300","decayModes":"ξ","zp":"","halfLife":"19.6s","nn":"44","nuclearSpin":"0+","daughterIsotopes":"Nb86","isotopicComposition":"Syn","atomicMass":"85.931"},{"nuclideSymbol":"Mo87","decayEnergy":"2.820","decayModes":"ξ + P","zp":">0","halfLife":"13.4s","nn":"45","nuclearSpin":"7\/2+","daughterIsotopes":"Zr86","isotopicComposition":"Syn","atomicMass":"86.927"},{"nuclideSymbol":"","decayEnergy":"6.490","decayModes":"ξ","zp":"","halfLife":"13.4s","nn":"","nuclearSpin":"","daughterIsotopes":"Nb87","isotopicComposition":"","atomicMass":""},{"nuclideSymbol":"Mo88","decayEnergy":"3.720","decayModes":"ξ","zp":"","halfLife":"8m","nn":"46","nuclearSpin":"0+","daughterIsotopes":"Nb88","isotopicComposition":"Syn","atomicMass":"87.922"},{"nuclideSymbol":"Mo89","decayEnergy":"5.580","decayModes":"ξ","zp":"","halfLife":"2.04m","nn":"47","nuclearSpin":"9\/2+","daughterIsotopes":"Nb89","isotopicComposition":"Syn","atomicMass":"88.9195"},{"nuclideSymbol":"MS","decayEnergy":"0.387","decayModes":"IT","zp":"","halfLife":"190ms","nn":"","nuclearSpin":"1\/2-","daughterIsotopes":"","isotopicComposition":"Syn","atomicMass":"0.387MeV"},{"nuclideSymbol":"Mo90","decayEnergy":"2.489","decayModes":"ξ","zp":"","halfLife":"5.56h","nn":"48","nuclearSpin":"0+","daughterIsotopes":"Nb90","isotopicComposition":"Syn","atomicMass":"89.9139"},{"nuclideSymbol":"Mo91","decayEnergy":"4.434","decayModes":"ξ","zp":"","halfLife":"15.49m","nn":"49","nuclearSpin":"9\/2+","daughterIsotopes":"Nb91","isotopicComposition":"Syn","atomicMass":"90.9118"},{"nuclideSymbol":"MS","decayEnergy":"0.653","decayModes":"IT","zp":"50.1","halfLife":"65s","nn":"","nuclearSpin":"1\/2-","daughterIsotopes":"","isotopicComposition":"Syn","atomicMass":"0.653MeV"},{"nuclideSymbol":"","decayEnergy":"5.087","decayModes":"ξ","zp":"49.9","halfLife":"65s","nn":"","nuclearSpin":"","daughterIsotopes":"Nb91","isotopicComposition":"","atomicMass":""},{"nuclideSymbol":"Mo92","decayEnergy":"","nuclearSpin":"0+","zp":"","halfLife":"Stable","nn":"50","daughterIsotopes":"","isotopicComposition":"14.84","atomicMass":"91.9068"},{"nuclideSymbol":"Mo93","decayEnergy":"0.405","decayModes":"ξ","zp":"","halfLife":"4000y","nn":"51","nuclearSpin":"5\/2+","daughterIsotopes":"Nb93","isotopicComposition":"Syn","atomicMass":"92.9068"},{"nuclideSymbol":"MS","decayEnergy":"2.425","decayModes":"IT","zp":"99.88","halfLife":"6.85h","nn":"","nuclearSpin":"21\/2+","daughterIsotopes":"","isotopicComposition":"Syn","atomicMass":"2.424MeV"},{"nuclideSymbol":"","decayEnergy":"2.830","decayModes":"ξ","zp":"0.12","halfLife":"6.85h","nn":"","nuclearSpin":"","daughterIsotopes":"Nb93","isotopicComposition":"","atomicMass":""},{"nuclideSymbol":"Mo94","decayEnergy":"","decayModes":"","zp":"","halfLife":"Stable","nn":"52","nuclearSpin":"0+","daughterIsotopes":"","isotopicComposition":"9.25","atomicMass":"93.9051"},{"nuclideSymbol":"Mo95","decayEnergy":"","decayModes":"","zp":"","halfLife":"Stable","nn":"53","nuclearSpin":"5\/2+","daughterIsotopes":"","isotopicComposition":"15.92","atomicMass":"94.9058"},{"nuclideSymbol":"Mo96","decayEnergy":"","decayModes":"","zp":"","halfLife":"Stable","nn":"54","nuclearSpin":"0+","daughterIsotopes":"","isotopicComposition":"16.68","atomicMass":"95.9047"},{"nuclideSymbol":"Mo97","decayEnergy":"","decayModes":"","zp":"","halfLife":"Stable","nn":"55","nuclearSpin":"5\/2+","daughterIsotopes":"","isotopicComposition":"9.55","atomicMass":"96.906"},{"nuclideSymbol":"Mo98","decayEnergy":"","decayModes":"","zp":"","halfLife":"Stable","nn":"56","nuclearSpin":"0+","daughterIsotopes":"","isotopicComposition":"24.13","atomicMass":"97.9054"},{"nuclideSymbol":"Mo99","decayEnergy":"1.357","decayModes":"β-","zp":"","halfLife":"65.94h","nn":"57","nuclearSpin":"1\/2+","daughterIsotopes":"Tc99","isotopicComposition":"Syn","atomicMass":"98.9077"},{"nuclideSymbol":"Mo100","decayEnergy":"3.034","decayModes":"β-","zp":"","halfLife":"1.00E¹⁹y","nn":"58","nuclearSpin":"0+","daughterIsotopes":"Ru100","isotopicComposition":"9.63","atomicMass":"99.9075"},{"nuclideSymbol":"Mo101","decayEnergy":"2.824","decayModes":"β-","zp":"","halfLife":"14.61m","nn":"59","nuclearSpin":"1\/2+","daughterIsotopes":"Tc101","isotopicComposition":"Syn","atomicMass":"100.9104"},{"nuclideSymbol":"Mo102","decayEnergy":"1.010","decayModes":"β-","zp":"","halfLife":"11.3m","nn":"60","nuclearSpin":"0+","daughterIsotopes":"Tc102","isotopicComposition":"Syn","atomicMass":"101.9103"},{"nuclideSymbol":"Mo103","decayEnergy":"3.750","decayModes":"β-","zp":"","halfLife":"67.5s","nn":"61","nuclearSpin":"3\/2+","daughterIsotopes":"Tc103","isotopicComposition":"Syn","atomicMass":"102.9132"},{"nuclideSymbol":"Mo104","decayEnergy":"2.160","decayModes":"β-","zp":"","halfLife":"60s","nn":"62","nuclearSpin":"0+","daughterIsotopes":"Tc104","isotopicComposition":"Syn","atomicMass":"103.9138"},{"nuclideSymbol":"Mo105","decayEnergy":"4.950","decayModes":"β-","zp":"","halfLife":"35.6s","nn":"63","nuclearSpin":"5\/2-","daughterIsotopes":"Tc105","isotopicComposition":"Syn","atomicMass":"104.917"},{"nuclideSymbol":"Mo106","decayEnergy":"3.520","decayModes":"β-","zp":"","halfLife":"8.4s","nn":"64","nuclearSpin":"0+","daughterIsotopes":"Tc106","isotopicComposition":"Syn","atomicMass":"105.9181"},{"nuclideSymbol":"Mo107","decayEnergy":"6.160","decayModes":"β-","zp":"","halfLife":"3.5s","nn":"65","nuclearSpin":"","daughterIsotopes":"Tc107","isotopicComposition":"Syn","atomicMass":"106.922"},{"nuclideSymbol":"Mo108","decayEnergy":"4.640","decayModes":"β-","zp":"","halfLife":"1.09s","nn":"66","nuclearSpin":"0+","daughterIsotopes":"Tc108","isotopicComposition":"Syn","atomicMass":"107.924"},{"nuclideSymbol":"Mo109","decayEnergy":"7.500","decayModes":"β-","zp":"","halfLife":"0.53s","nn":"67","nuclearSpin":"","daughterIsotopes":"Tc109","isotopicComposition":"Syn","atomicMass":"108.928"},{"nuclideSymbol":"Mo110","decayEnergy":"5.900","decayModes":"β-","zp":"","halfLife":"0.3s","nn":"68","nuclearSpin":"0+","daughterIsotopes":"Tc110","isotopicComposition":"Syn","atomicMass":"109.93"},{"nuclideSymbol":"Mo111","decayEnergy":"","decayModes":"","zp":"","halfLife":">150ns","nn":"69","nuclearSpin":"","daughterIsotopes":"","isotopicComposition":"Syn","atomicMass":"110.935"},{"nuclideSymbol":"Mo112","decayEnergy":"","decayModes":"","zp":"","halfLife":">150ns","nn":"70","nuclearSpin":"0+","daughterIsotopes":"","isotopicComposition":"Syn","atomicMass":"111.937"},{"nuclideSymbol":"Mo113","decayEnergy":"","decayModes":"","zp":"","halfLife":">150ns","nn":"71","nuclearSpin":"","daughterIsotopes":"","isotopicComposition":"Syn","atomicMass":"112.942"}],"elasticModulusYoungs":"329","atomicMassFootnote":"g","incompatibilities":"Strong oxidizers.","fillingOrbital":[{"4d":"5"}],"atomicRadius":"2.01","enthalpyOfVaporization":"594.1","heatOfVaporization":"598","hardnessScaleBrinell":"1500","group":"6","atomicNumber":42,"relativeGasDensity":"","ionizationPotentialThird":"27.16","crossSection":"2.65","electroChemicalEquivalent":"0.8949","electronConfiguration":{"4p":"6","5s":"1","3p":"6","4s":"2","2p":"6","3s":"2","2s":"2","3d":"10","1s":"2","4d":"5"},"criticalTemperature":"","heatOfFusion":"32"}