{"hardnessScaleMohs":"","opticalReflectivity":"","meltingPointFootnote":"","conductivityElectrical":"","standardCondition":"Gas","crystalStructure":"Hexagonal","coefficientOfLinealThermalExpansion":"","flammabilityClass":"","molarHeatCapacity":"29.124","numberOfNeutrons":"7","series":"Non Metal","vaporPressure":{"pa10":"-232","pa100kFootnote":"","pa100Footnote":"s","pa100":"-226.8","pa1Footnote":"s","pa1":"-236","pa1kFootnote":"s","pa1k":"-220.2","pa10kFootnote":"s","pa10Footnote":"s","pa10k":"-211.1","pa100k":"-195.9"},"casRegistryNumber":"7727-37-9","oxidationStates":"±3, 5, 4, 2","lineSpectra":[{"intensity":"200","airWavelength":"4003.5800","spectrum":"N III"},{"intensity":"30","airWavelength":"4041.3100","spectrum":"N II"},{"intensity":"159","airWavelength":"4057.7600","spectrum":"N IV"},{"intensity":"250","airWavelength":"4097.3300","spectrum":"N III"},{"intensity":"200","airWavelength":"4103.4300","spectrum":"N III"},{"intensity":"20","airWavelength":"4241.7800","spectrum":"N II"},{"intensity":"90","airWavelength":"4332.9100","spectrum":"N III"},{"intensity":"120","airWavelength":"4345.6800","spectrum":"N III"},{"intensity":"300","airWavelength":"4379.1100","spectrum":"N III"},{"intensity":"30","airWavelength":"4447.0300","spectrum":"N II"},{"intensity":"90","airWavelength":"4510.9100","spectrum":"N III"},{"intensity":"120","airWavelength":"4514.8600","spectrum":"N III"},{"intensity":"30","airWavelength":"4601.4800","spectrum":"N II"},{"intensity":"350","airWavelength":"4603.7400","spectrum":"N V"},{"intensity":"200","airWavelength":"4606.3300","spectrum":"N IV"},{"intensity":"20","airWavelength":"4607.1600","spectrum":"N II"},{"intensity":"250","airWavelength":"4619.8800","spectrum":"N V"},{"intensity":"20","airWavelength":"4621.3900","spectrum":"N II"},{"intensity":"40","airWavelength":"4630.5400","spectrum":"N II"},{"intensity":"90","airWavelength":"4634.1400","spectrum":"N III"},{"intensity":"120","airWavelength":"4640.6400","spectrum":"N III"},{"intensity":"30","airWavelength":"4643.0800","spectrum":"N II"},{"intensity":"20","airWavelength":"4803.2900","spectrum":"N II"},{"intensity":"90","airWavelength":"4858.8200","spectrum":"N III"},{"intensity":"150","airWavelength":"4867.1500","spectrum":"N III"},{"intensity":"200","airWavelength":"4944.5600","spectrum":"N V"},{"intensity":"80","airWavelength":"4963.9800","spectrum":"N I"},{"intensity":"20","airWavelength":"4994.3600","spectrum":"N II"},{"intensity":"30","airWavelength":"5001.4800","spectrum":"N II"},{"intensity":"40","airWavelength":"5005.1500","spectrum":"N II"},{"intensity":"30","airWavelength":"5007.3200","spectrum":"N II"},{"intensity":"20","airWavelength":"5010.6200","spectrum":"N II"},{"intensity":"30","airWavelength":"5045.1000","spectrum":"N II"},{"intensity":"90","airWavelength":"5314.5500","spectrum":"N III"},{"intensity":"200","airWavelength":"5320.8200","spectrum":"N III"},{"intensity":"150","airWavelength":"5327.1800","spectrum":"N III"},{"intensity":"30","airWavelength":"5666.6300","spectrum":"N II"},{"intensity":"30","airWavelength":"5676.0200","spectrum":"N II"},{"intensity":"40","airWavelength":"5679.5600","spectrum":"N II"},{"intensity":"20","airWavelength":"5686.2100","spectrum":"N II"},{"intensity":"20","airWavelength":"5710.7700","spectrum":"N II"},{"intensity":"150","airWavelength":"5752.5000","spectrum":"N I"},{"intensity":"30","airWavelength":"5931.7800","spectrum":"N II"},{"intensity":"30","airWavelength":"5941.6500","spectrum":"N II"},{"intensity":"150","airWavelength":"6380.7700","spectrum":"N IV"},{"intensity":"90","airWavelength":"6454.1100","spectrum":"N III"},{"intensity":"120","airWavelength":"6467.0200","spectrum":"N III"},{"intensity":"40","airWavelength":"6482.0500","spectrum":"N II"},{"intensity":"90","airWavelength":"6482.7000","spectrum":"N I"},{"intensity":"40","airWavelength":"6610.5600","spectrum":"N II"}],"numberOfElectrons":"7","magneticSusceptibility":"-12.0","atomicVolume":"17.3","abundanceCrust":"1.9x10¹","boilingPoint":"-195.79","discoveryYear":"1772","electroNegativity":"3.04","meltingPoint":"-210.00","elasticModulusBulk":"","boilingPointFootnote":"","ionizationPotentialSecond":"29.601","conductivityThermal":"0.0002598","discoveryLocation":"Scotland\/Sweden","descr":"Colorless, odorless, tasteless gas.","elasticModulusRigidity":"","discoverer":"Daniel Rutherford","ionicRadius":"0.13","numberOfProtons":"7","abundanceSea":"5x10¹","atomicMass":"14.0067","ionizationPotentialFirst":"14.534","molarVolume":"17.3","hardnessScaleVickers":"","enthalpyOfAtomization":"472.8","density":"1.145","enthalpyOfFusion":"0.36","opticalRefractiveIndex":"1.00298 (gas) 1.197 (liquid)","qualitativeSolubility":"soluble in H₂0; insoluble in ethanol","name":"Nitrogen","specificHeat":"1.040","atomicMassUncertainty":2,"valenceElectronPotential":"550","covalentRadius":"0.75","electronWorkFunction":"","valenceElectrons":[{"2p":"3","2s":"2"}],"atomicMassKnownAccurately":true,"period":"2","symbol":"N","nuclidesAndIsotopes":[{"nuclideSymbol":"N10","decayEnergy":"","decayModes":"","zp":"","halfLife":"","nn":"3","nuclearSpin":"","daughterIsotopes":"","isotopicComposition":"Syn","atomicMass":"10.43"},{"nuclideSymbol":"N11","decayEnergy":"2.290","decayModes":"P","zp":"","halfLife":"740KeV","nn":"4","nuclearSpin":"1\/2+","daughterIsotopes":"C10","isotopicComposition":"Syn","atomicMass":"11.027"},{"nuclideSymbol":"N12","decayEnergy":"17.338","decayModes":"ξ","zp":"","halfLife":"11.000ms","nn":"5","nuclearSpin":"1+","daughterIsotopes":"C12","isotopicComposition":"Syn","atomicMass":"12.0186"},{"nuclideSymbol":"N13","decayEnergy":"2.220","decayModes":"ξ","zp":"","halfLife":"9.965m","nn":"6","nuclearSpin":"1\/2-","daughterIsotopes":"C13","isotopicComposition":"Syn","atomicMass":"13.0057"},{"nuclideSymbol":"N14","decayEnergy":"","decayModes":"","zp":"","halfLife":"Stable","nn":"7","nuclearSpin":"1+","daughterIsotopes":"","isotopicComposition":"99.634","atomicMass":"14.0031"},{"nuclideSymbol":"N15","decayEnergy":"","decayModes":"","zp":"","halfLife":"Stable","nn":"8","nuclearSpin":"1\/2-","daughterIsotopes":"","isotopicComposition":"0.366","atomicMass":"15.0001"},{"nuclideSymbol":"N16","decayEnergy":"10.419","decayModes":"β-","zp":"","halfLife":"7.13s","nn":"9","nuclearSpin":"2-","daughterIsotopes":"O16","isotopicComposition":"Syn","atomicMass":"16.0061"},{"nuclideSymbol":"MS","decayEnergy":"10.539","decayModes":"β-","zp":"","halfLife":"7.25us","nn":"","nuclearSpin":"0-","daughterIsotopes":"O16","isotopicComposition":"Syn","atomicMass":"0.120MeV"},{"nuclideSymbol":"","decayEnergy":"0.120","decayModes":"IT","zp":"","halfLife":"7.25us","nn":"","nuclearSpin":"","daughterIsotopes":"N16","isotopicComposition":"","atomicMass":""},{"nuclideSymbol":"N17","decayEnergy":"8.680","decayModes":"β-","zp":"","halfLife":"4.173s","nn":"10","nuclearSpin":"1\/2-","daughterIsotopes":"O17","isotopicComposition":"Syn","atomicMass":"17.0084"},{"nuclideSymbol":"","decayEnergy":"4.536","decayModes":"β- + N","zp":"","halfLife":"4.173s","nn":"","nuclearSpin":"","daughterIsotopes":"O16","isotopicComposition":"","atomicMass":""},{"nuclideSymbol":"N18","decayEnergy":"13.899","decayModes":"β-","zp":"","halfLife":"624ms","nn":"11","nuclearSpin":"1-","daughterIsotopes":"O18","isotopicComposition":"Syn","atomicMass":"18.0141"},{"nuclideSymbol":"","decayEnergy":"7.672","decayModes":"β- + α","zp":"","halfLife":"624ms","nn":"","nuclearSpin":"","daughterIsotopes":"C14","isotopicComposition":"","atomicMass":""},{"nuclideSymbol":"N19","decayEnergy":"8.571","decayModes":"β- + N","zp":"62.4","halfLife":"0.304s","nn":"12","nuclearSpin":"1\/2-","daughterIsotopes":"O18","isotopicComposition":"Syn","atomicMass":"19.017"},{"nuclideSymbol":"","decayEnergy":"12.527","decayModes":"β-","zp":"","halfLife":"0.304s","nn":" ","nuclearSpin":"","daughterIsotopes":"O19","isotopicComposition":" ","atomicMass":" "},{"nuclideSymbol":"N20","decayEnergy":"10.360","decayModes":"β- + N","zp":"~61","halfLife":"100ms","nn":"13","nuclearSpin":"","daughterIsotopes":"O19","isotopicComposition":"Syn","atomicMass":"20.0234"},{"nuclideSymbol":"","decayEnergy":"17.970","decayModes":"β-","zp":"","halfLife":"100ms","nn":" ","nuclearSpin":"","daughterIsotopes":"O20","isotopicComposition":" ","atomicMass":" "},{"nuclideSymbol":"N21","decayEnergy":"13.630","decayModes":"β- + N","zp":"","halfLife":"85ms","nn":"14","nuclearSpin":"","daughterIsotopes":"O20","isotopicComposition":"Syn","atomicMass":"21.0271"},{"nuclideSymbol":"","decayEnergy":"17.170","decayModes":"β-","zp":" ","halfLife":"85ms","nn":"","nuclearSpin":"","daughterIsotopes":"O21","isotopicComposition":" ","atomicMass":" "},{"nuclideSymbol":"N22","decayEnergy":"15.950","decayModes":"β- + N","zp":"35","halfLife":"24ms","nn":"15","nuclearSpin":"","daughterIsotopes":"O21","isotopicComposition":"Syn","atomicMass":"22.034"},{"nuclideSymbol":"","decayEnergy":"22.800","decayModes":"β-","zp":"","halfLife":"24ms","nn":"","nuclearSpin":"","daughterIsotopes":"O22","isotopicComposition":"","atomicMass":""},{"nuclideSymbol":"N23","decayEnergy":"","decayModes":"","zp":"","halfLife":"> 200ns","nn":"16","nuclearSpin":"","daughterIsotopes":"","isotopicComposition":"Syn","atomicMass":"23.041"},{"nuclideSymbol":"N24","decayEnergy":"","decayModes":"","zp":"","halfLife":"","nn":"17","nuclearSpin":"","daughterIsotopes":"","isotopicComposition":"Syn","atomicMass":"24.051"}],"elasticModulusYoungs":"","atomicMassFootnote":"g r","incompatibilities":"","fillingOrbital":[{"2p":"3"}],"atomicRadius":"0.75","enthalpyOfVaporization":"2.79","heatOfVaporization":"2.7928","hardnessScaleBrinell":"","group":"15","atomicNumber":7,"relativeGasDensity":"","ionizationPotentialThird":"47.448","crossSection":"1.9","electroChemicalEquivalent":"0.10452","electronConfiguration":{"2p":"3","2s":"2","1s":"2"},"criticalTemperature":"-146.94","heatOfFusion":""}