{"hardnessScaleMohs":"0.5","opticalReflectivity":"","meltingPointFootnote":"","conductivityElectrical":"0.21","standardCondition":"Solid","crystalStructure":"CubicBody","coefficientOfLinealThermalExpansion":"0.000072","flammabilityClass":"","molarHeatCapacity":"28.230","numberOfNeutrons":"12","series":"Alkali Metal","vaporPressure":{"pa10":"344.2","pa100kFootnote":"","pa100Footnote":"","pa100":"424.3","pa1Footnote":"","pa1":"280.6","pa1kFootnote":"","pa1k":"529","pa10kFootnote":"","pa10Footnote":"","pa10k":"673","pa100k":"880.2"},"casRegistryNumber":"7440-23-5","oxidationStates":"1","lineSpectra":[{"intensity":"150","airWavelength":"4113.7000","spectrum":"Na II"},{"intensity":"1","airWavelength":"4324.6200","spectrum":"Na I"},{"intensity":"1","airWavelength":"4390.0300","spectrum":"Na I"},{"intensity":"600","airWavelength":"4392.8100","spectrum":"Na II"},{"intensity":"1","airWavelength":"4393.3400","spectrum":"Na I"},{"intensity":"400","airWavelength":"4405.1200","spectrum":"Na II"},{"intensity":"500","airWavelength":"4455.2300","spectrum":"Na II"},{"intensity":"400","airWavelength":"4490.8700","spectrum":"Na II"},{"intensity":"1","airWavelength":"4494.1800","spectrum":"Na I"},{"intensity":"1","airWavelength":"4497.6600","spectrum":"Na I"},{"intensity":"2","airWavelength":"4664.8110","spectrum":"Na I"},{"intensity":"2","airWavelength":"4668.5600","spectrum":"Na I"},{"intensity":"2","airWavelength":"4978.5410","spectrum":"Na I"},{"intensity":"5","airWavelength":"4982.8130","spectrum":"Na I"},{"intensity":"1","airWavelength":"5148.8380","spectrum":"Na I"},{"intensity":"1","airWavelength":"5153.4020","spectrum":"Na I"},{"intensity":"50","airWavelength":"5414.5500","spectrum":"Na II"},{"intensity":"4","airWavelength":"5682.6330","spectrum":"Na I"},{"intensity":"1","airWavelength":"5688.1930","spectrum":"Na I"},{"intensity":"7","airWavelength":"5688.2050","spectrum":"Na I"},{"intensity":"1000","airWavelength":"5889.9500","spectrum":"Na I"},{"intensity":"500","airWavelength":"5895.9240","spectrum":"Na I"},{"intensity":"2","airWavelength":"6154.2250","spectrum":"Na I"},{"intensity":"3","airWavelength":"6160.7470","spectrum":"Na I"},{"intensity":"50","airWavelength":"6514.2100","spectrum":"Na II"},{"intensity":"70","airWavelength":"6530.7000","spectrum":"Na II"},{"intensity":"70","airWavelength":"6544.0400","spectrum":"Na II"},{"intensity":"70","airWavelength":"6545.7500","spectrum":"Na II"}],"numberOfElectrons":"11","magneticSusceptibility":"+16","atomicVolume":"23.7","abundanceCrust":"2.36x10⁴","boilingPoint":"883","discoveryYear":"1807","electroNegativity":"0.93","meltingPoint":"97.80","elasticModulusBulk":"6.3","boilingPointFootnote":"","ionizationPotentialSecond":"47.286","conductivityThermal":"1.41","discoveryLocation":"England","descr":"Soft silvery white alkali metal.","elasticModulusRigidity":"3.3","discoverer":"Sir Humphrey Davy","ionicRadius":"1.02","numberOfProtons":"11","abundanceSea":"1.08x10⁴","atomicMass":"22.989770","ionizationPotentialFirst":"5.139","molarVolume":"23.7","hardnessScaleVickers":"","enthalpyOfAtomization":"108.4","density":"0.97","enthalpyOfFusion":"2.59","opticalRefractiveIndex":"","qualitativeSolubility":"reacts with H₂0","name":"Sodium","specificHeat":"1.228","atomicMassUncertainty":2,"valenceElectronPotential":"","covalentRadius":"1.54","electronWorkFunction":"2.75","valenceElectrons":[{"3s":"1"}],"atomicMassKnownAccurately":true,"period":"3","symbol":"Na","nuclidesAndIsotopes":[{"nuclideSymbol":"Na18","decayEnergy":"","decayModes":"","zp":"","halfLife":"","nn":"7","nuclearSpin":"","daughterIsotopes":"","isotopicComposition":"Syn","atomicMass":"18.027"},{"nuclideSymbol":"Na19","decayEnergy":"","decayModes":"","zp":"","halfLife":"","nn":"8","nuclearSpin":"","daughterIsotopes":"","isotopicComposition":"Syn","atomicMass":"19.0139"},{"nuclideSymbol":"Na20","decayEnergy":"13.887","decayModes":"ξ","zp":"","halfLife":"447.9ms","nn":"9","nuclearSpin":"2+","daughterIsotopes":"Ne20","isotopicComposition":"Syn","atomicMass":"20.0074"},{"nuclideSymbol":"Na21","decayEnergy":"3.547","decayModes":"ξ","zp":"","halfLife":"22.49s","nn":"10","nuclearSpin":"3\/2+","daughterIsotopes":"Ne21","isotopicComposition":"Syn","atomicMass":"20.9977"},{"nuclideSymbol":"Na22","decayEnergy":"2.842","decayModes":"ξ","zp":"","halfLife":"2.6019y","nn":"11","nuclearSpin":"3+","daughterIsotopes":"Ne22","isotopicComposition":"Syn","atomicMass":"21.9944"},{"nuclideSymbol":"Na23","decayEnergy":"","decayModes":"","zp":"","halfLife":"Stable","nn":"12","nuclearSpin":"3\/2+","daughterIsotopes":"","isotopicComposition":"100","atomicMass":"22.9898"},{"nuclideSymbol":"Na24","decayEnergy":"5.516","decayModes":"β-","zp":"","halfLife":"14.9590h","nn":"13","nuclearSpin":"4+","daughterIsotopes":"Mg24","isotopicComposition":"Syn","atomicMass":"23.991"},{"nuclideSymbol":"MS","decayEnergy":"0.472","decayModes":"IT","zp":"99.95","halfLife":"20.2ms","nn":"","nuclearSpin":"1+","daughterIsotopes":"","isotopicComposition":"Syn","atomicMass":"0.472MeV"},{"nuclideSymbol":"","decayEnergy":"5.988","decayModes":"β-","zp":"0.05","halfLife":"20.2ms","nn":"","nuclearSpin":"","daughterIsotopes":"Mg24","isotopicComposition":"","atomicMass":""},{"nuclideSymbol":"Na25","decayEnergy":"3.835","decayModes":"β-","zp":"","halfLife":"59.1s","nn":"14","nuclearSpin":"5\/2+","daughterIsotopes":"Mg25","isotopicComposition":"Syn","atomicMass":"24.99"},{"nuclideSymbol":"Na26","decayEnergy":"9.312","decayModes":"β-","zp":"","halfLife":"1.072s","nn":"15","nuclearSpin":"3+","daughterIsotopes":"Mg26","isotopicComposition":"Syn","atomicMass":"25.9926"},{"nuclideSymbol":"Na27","decayEnergy":"2.560","decayModes":"β- + N","zp":"0.13","halfLife":"301ms","nn":"16","nuclearSpin":"5\/2+","daughterIsotopes":"Mg26","isotopicComposition":"Syn","atomicMass":"26.994"},{"nuclideSymbol":"","decayEnergy":"9.010","decayModes":"β-","zp":"","halfLife":"301ms","nn":"","nuclearSpin":"","daughterIsotopes":"Mg27","isotopicComposition":"","atomicMass":""},{"nuclideSymbol":"Na28","decayEnergy":"5.480","decayModes":"β- + N","zp":"0.58","halfLife":"30.5ms","nn":"17","nuclearSpin":"1+","daughterIsotopes":"Mg27","isotopicComposition":"Syn","atomicMass":"27.9989"},{"nuclideSymbol":"","decayEnergy":"13.990","decayModes":"β-","zp":"","halfLife":"30.5ms","nn":"","nuclearSpin":"","daughterIsotopes":"Mg28","isotopicComposition":"","atomicMass":""},{"nuclideSymbol":"Na29","decayEnergy":"13.280","decayModes":"β-","zp":"","halfLife":"44.9ms","nn":"18","nuclearSpin":"3\/2+","daughterIsotopes":"Mg29","isotopicComposition":"Syn","atomicMass":"29.0028"},{"nuclideSymbol":"MS","decayEnergy":"9.570","decayModes":"β- + N","zp":"21.5","halfLife":"44.9ms","nn":"","nuclearSpin":"","daughterIsotopes":"Mg28","isotopicComposition":"Syn","atomicMass":"0.000MeV"},{"nuclideSymbol":"Na30","decayEnergy":"11.180","decayModes":"β- + N","zp":"30","halfLife":"48ms","nn":"19","nuclearSpin":"2+","daughterIsotopes":"Mg29","isotopicComposition":"Syn","atomicMass":"30.009"},{"nuclideSymbol":"","decayEnergy":"5.740","decayModes":"β- + α","zp":"0.00005","halfLife":"48ms","nn":"","nuclearSpin":"","daughterIsotopes":"Ne26","isotopicComposition":"","atomicMass":""},{"nuclideSymbol":"","decayEnergy":"17.480","decayModes":"β-","zp":"","halfLife":"48ms","nn":"","nuclearSpin":"","daughterIsotopes":"Mg30","isotopicComposition":"","atomicMass":""},{"nuclideSymbol":"Na31","decayEnergy":"13.470","decayModes":"β- + N","zp":"37","halfLife":"17ms","nn":"20","nuclearSpin":"3\/2+","daughterIsotopes":"Mg30","isotopicComposition":"Syn","atomicMass":"31.014"},{"nuclideSymbol":"","decayEnergy":"15.880","decayModes":"β-","zp":"","halfLife":"17ms","nn":"","nuclearSpin":"","daughterIsotopes":"Mg31","isotopicComposition":"","atomicMass":""},{"nuclideSymbol":"Na32","decayEnergy":"13.400","decayModes":"β- + N","zp":"24","halfLife":"13.2ms","nn":"21","nuclearSpin":"3-, 4-","daughterIsotopes":"Mg31","isotopicComposition":"Syn","atomicMass":"32.02"},{"nuclideSymbol":"","decayEnergy":"19.100","decayModes":"β-","zp":"","halfLife":"13.2ms","nn":"","nuclearSpin":"","daughterIsotopes":"Mg32","isotopicComposition":"","atomicMass":""},{"nuclideSymbol":"Na33","decayEnergy":"18.200","decayModes":"β- + N","zp":"52","halfLife":"8.2ms","nn":"22","nuclearSpin":"","daughterIsotopes":"Mg32","isotopicComposition":"Syn","atomicMass":"33.03"},{"nuclideSymbol":"","decayEnergy":"20.300","decayModes":"β-","zp":"","halfLife":"8.2ms","nn":"","nuclearSpin":"","daughterIsotopes":"Mg33","isotopicComposition":"","atomicMass":""},{"nuclideSymbol":"Na34","decayEnergy":"24.100","decayModes":"β-","zp":"","halfLife":"5.5ms","nn":"23","nuclearSpin":"","daughterIsotopes":"Mg34","isotopicComposition":"Syn","atomicMass":"34.03"},{"nuclideSymbol":"","decayEnergy":"19.200","decayModes":"β- + N","zp":"","halfLife":"5.5ms","nn":"","nuclearSpin":"","daughterIsotopes":"Mg33","isotopicComposition":"","atomicMass":""},{"nuclideSymbol":"Na35","decayEnergy":"24.900","decayModes":"β-","zp":"","halfLife":"1.5ms","nn":"24","nuclearSpin":"","daughterIsotopes":"Mg35","isotopicComposition":"Syn","atomicMass":"35.04"},{"nuclideSymbol":"","decayEnergy":"24.600","decayModes":"β- + N","zp":"","halfLife":"1.5ms","nn":"","nuclearSpin":"","daughterIsotopes":"Mg34","isotopicComposition":"","atomicMass":""}],"elasticModulusYoungs":"10","atomicMassFootnote":"","incompatibilities":"","fillingOrbital":[{"3s":"1"}],"atomicRadius":"2.23","enthalpyOfVaporization":"89.04","heatOfVaporization":"96.96","hardnessScaleBrinell":"0.69","group":"1","atomicNumber":11,"relativeGasDensity":"","ionizationPotentialThird":"71.641","crossSection":"534","electroChemicalEquivalent":"0.85775","electronConfiguration":{"2p":"6","3s":"1","2s":"2","1s":"2"},"criticalTemperature":"2300","heatOfFusion":"2.598"}