{"hardnessScaleMohs":"6","opticalReflectivity":"","meltingPointFootnote":"","conductivityElectrical":"0.0693","standardCondition":"Solid","crystalStructure":"CubicBody","coefficientOfLinealThermalExpansion":"0.0000073","flammabilityClass":"","molarHeatCapacity":"24.60","numberOfNeutrons":"52","series":"Transition Metal","vaporPressure":{"pa10":"2934","pa100kFootnote":"","pa100Footnote":"","pa100":"3251","pa1Footnote":"","pa1":"2669","pa1kFootnote":"","pa1k":"3637","pa10kFootnote":"","pa10Footnote":"","pa10k":"4120","pa100k":"4740"},"casRegistryNumber":"7440-03-1","oxidationStates":"5, 3","lineSpectra":[{"intensity":"0","airWavelength":"0","spectrum":"TBD"}],"numberOfElectrons":"41","magneticSusceptibility":"+208","atomicVolume":"10.87","abundanceCrust":"2.0x10¹","boilingPoint":"4744","discoveryYear":"1801","electroNegativity":"1.6","meltingPoint":"2477","elasticModulusBulk":"170","boilingPointFootnote":"","ionizationPotentialSecond":"14.32","conductivityThermal":"0.537","discoveryLocation":"England","descr":"Shiny white soft transition metal.","elasticModulusRigidity":"38","discoverer":"Charles Hatchet","ionicRadius":"0.69","numberOfProtons":"41","abundanceSea":"1x10⁻⁵","atomicMass":"92.90638","molarVolume":"10.84","ionizationPotentialFirst":"6.88","hardnessScaleVickers":"1320","enthalpyOfAtomization":"745","density":"8.57","enthalpyOfFusion":"27.2","opticalRefractiveIndex":"","qualitativeSolubility":"insoluble in acid","name":"Niobium","specificHeat":"0.265","atomicMassUncertainty":2,"valenceElectronPotential":"104","covalentRadius":"1.34","electronWorkFunction":"4.3","valenceElectrons":[{"4d":"4"},{"5s":"1"}],"atomicMassKnownAccurately":true,"period":"5","symbol":"Nb","nuclidesAndIsotopes":[{"nuclideSymbol":"Nb81","decayEnergy":"","decayModes":"","zp":"","halfLife":"","nn":"40","nuclearSpin":"","daughterIsotopes":"","isotopicComposition":"Syn","atomicMass":"80.949"},{"nuclideSymbol":"Nb82","decayEnergy":"","decayModes":"","zp":"","halfLife":">150ns","nn":"41","nuclearSpin":"","daughterIsotopes":"","isotopicComposition":"Syn","atomicMass":"81.943"},{"nuclideSymbol":"Nb83","decayEnergy":"7.500","decayModes":"ξ","zp":"","halfLife":"4.1s","nn":"42","nuclearSpin":"5\/2+","daughterIsotopes":"Zr83","isotopicComposition":"Syn","atomicMass":"82.937"},{"nuclideSymbol":"Nb84","decayEnergy":"9.600","decayModes":"ξ","zp":"","halfLife":"12s","nn":"43","nuclearSpin":"3+","daughterIsotopes":"Zr84","isotopicComposition":"Syn","atomicMass":"83.934"},{"nuclideSymbol":"","decayEnergy":"3.200","decayModes":"ξ + P","zp":"","halfLife":"12s","nn":"","nuclearSpin":"","daughterIsotopes":"Y83","isotopicComposition":"","atomicMass":""},{"nuclideSymbol":"Nb85","decayEnergy":"6.000","decayModes":"ξ","zp":"","halfLife":"20.9s","nn":"44","nuclearSpin":"9\/2+","daughterIsotopes":"Zr85","isotopicComposition":"Syn","atomicMass":"84.928"},{"nuclideSymbol":"Nb86","decayEnergy":"7.980","decayModes":"ξ","zp":"","halfLife":"88s","nn":"45","nuclearSpin":"5+","daughterIsotopes":"Zr86","isotopicComposition":"Syn","atomicMass":"85.925"},{"nuclideSymbol":"MS","decayEnergy":"7.980","decayModes":"ξ","zp":"","halfLife":"56s","nn":"","nuclearSpin":"","daughterIsotopes":"Zr86","isotopicComposition":"Syn","atomicMass":"0.000MeV"},{"nuclideSymbol":"Nb87","decayEnergy":"5.170","decayModes":"ξ","zp":"","halfLife":"2.6m","nn":"46","nuclearSpin":"9\/2+","daughterIsotopes":"Zr87","isotopicComposition":"Syn","atomicMass":"86.9204"},{"nuclideSymbol":"MS","decayEnergy":"5.170","decayModes":"ξ","zp":"","halfLife":"3.7m","nn":"","nuclearSpin":"1\/2-","daughterIsotopes":"Zr87","isotopicComposition":"Syn","atomicMass":"0.000MeV"},{"nuclideSymbol":"Nb88","decayEnergy":"7.200","decayModes":"ξ","zp":"","halfLife":"14.5m","nn":"47","nuclearSpin":"8+","daughterIsotopes":"Zr88","isotopicComposition":"Syn","atomicMass":"87.918"},{"nuclideSymbol":"MS","decayEnergy":"7.200","decayModes":"ξ","zp":"","halfLife":"7.8m","nn":"","nuclearSpin":"4-","daughterIsotopes":"Zr88","isotopicComposition":"Syn","atomicMass":"0.000MeV"},{"nuclideSymbol":"Nb89","decayEnergy":"4.290","decayModes":"ξ","zp":"","halfLife":"1.9h","nn":"48","nuclearSpin":"9\/2+","daughterIsotopes":"Zr89","isotopicComposition":"Syn","atomicMass":"88.9135"},{"nuclideSymbol":"MS","decayEnergy":"4.290","decayModes":"ξ","zp":"","halfLife":"1.18h","nn":"","nuclearSpin":"1\/2-","daughterIsotopes":"Zr89","isotopicComposition":"Syn","atomicMass":"0.000MeV"},{"nuclideSymbol":"Nb90","decayEnergy":"6.111","decayModes":"ξ","zp":"","halfLife":"14.6h","nn":"49","nuclearSpin":"8+","daughterIsotopes":"Zr90","isotopicComposition":"Syn","atomicMass":"89.9113"},{"nuclideSymbol":"MS","decayEnergy":"0.125","decayModes":"IT","zp":"","halfLife":"18.81s","nn":"","nuclearSpin":"4-","daughterIsotopes":"Nb90","isotopicComposition":"Syn","atomicMass":"0.125MeV"},{"nuclideSymbol":"Nb91","decayEnergy":"1.253","decayModes":"ξ","zp":"","halfLife":"680y","nn":"50","nuclearSpin":"9\/2+","daughterIsotopes":"Zr91","isotopicComposition":"Syn","atomicMass":"90.907"},{"nuclideSymbol":"MS","decayEnergy":"0.104","decayModes":"IT","zp":"93","halfLife":"60.86d","nn":"","nuclearSpin":"1\/2-","daughterIsotopes":"","isotopicComposition":"Syn","atomicMass":"0.104MeV"},{"nuclideSymbol":"","decayEnergy":"1.357","decayModes":"ξ","zp":"7","halfLife":"60.86d","nn":"","nuclearSpin":"","daughterIsotopes":"Zr91","isotopicComposition":"","atomicMass":""},{"nuclideSymbol":"Nb92","decayEnergy":"0.356","decayModes":"β-","zp":"<0.05","halfLife":"3.47E⁷y","nn":"51","nuclearSpin":"7+","daughterIsotopes":"Mo92","isotopicComposition":"Syn","atomicMass":"91.9072"},{"nuclideSymbol":"","decayEnergy":"2.006","decayModes":"ξ","zp":"","halfLife":"3.47E⁷y","nn":"","nuclearSpin":"","daughterIsotopes":"Zr92","isotopicComposition":"","atomicMass":""},{"nuclideSymbol":"MS","decayEnergy":"2.141","decayModes":"ξ","zp":"","halfLife":"10.15d","nn":"","nuclearSpin":"2+","daughterIsotopes":"Zr92","isotopicComposition":"Syn","atomicMass":"0.135MeV"},{"nuclideSymbol":"Nb93","decayEnergy":"","decayModes":"","zp":"","halfLife":"Stable","nn":"52","nuclearSpin":"9\/2+","daughterIsotopes":"","isotopicComposition":"100","atomicMass":"92.9064"},{"nuclideSymbol":"MS","decayEnergy":"0.031","decayModes":"IT","zp":"","halfLife":"16.13y","nn":"","nuclearSpin":"1\/2-","daughterIsotopes":"","isotopicComposition":"Syn","atomicMass":"0.030MeV"},{"nuclideSymbol":"Nb94","decayEnergy":"2.045","decayModes":"β-","zp":"","halfLife":"20300y","nn":"53","nuclearSpin":"6+","daughterIsotopes":"Mo94","isotopicComposition":"Syn","atomicMass":"93.9073"},{"nuclideSymbol":"MS","decayEnergy":"0.041","decayModes":"IT","zp":"99.5","halfLife":"6.263m","nn":"","nuclearSpin":"3+","daughterIsotopes":"","isotopicComposition":"Syn","atomicMass":"0.041MeV"},{"nuclideSymbol":"","decayEnergy":"2.086","decayModes":"β-","zp":"0.5","halfLife":"6.263m","nn":"","nuclearSpin":"","daughterIsotopes":"Mo94","isotopicComposition":"","atomicMass":""},{"nuclideSymbol":"Nb95","decayEnergy":"0.926","decayModes":"β-","zp":"","halfLife":"34.975d","nn":"54","nuclearSpin":"9\/2+","daughterIsotopes":"Mo95","isotopicComposition":"Syn","atomicMass":"94.9068"},{"nuclideSymbol":"MS","decayEnergy":"0.236","decayModes":"IT","zp":"94.4","halfLife":"86.6h","nn":"","nuclearSpin":"1\/2-","daughterIsotopes":"","isotopicComposition":"Syn","atomicMass":"0.235MeV"},{"nuclideSymbol":"","decayEnergy":"1.162","decayModes":"β-","zp":"5.6","halfLife":"86.6h","nn":"","nuclearSpin":"","daughterIsotopes":"Mo95","isotopicComposition":"","atomicMass":""},{"nuclideSymbol":"Nb96","decayEnergy":"3.187","decayModes":"β-","zp":"","halfLife":"23.35h","nn":"55","nuclearSpin":"6+","daughterIsotopes":"Mo96","isotopicComposition":"Syn","atomicMass":"95.9081"},{"nuclideSymbol":"Nb97","decayEnergy":"1.934","decayModes":"β-","zp":"","halfLife":"72.1m","nn":"56","nuclearSpin":"9\/2+","daughterIsotopes":"Mo97","isotopicComposition":"Syn","atomicMass":"96.9081"},{"nuclideSymbol":"MS","decayEnergy":"0.743","decayModes":"IT","zp":"","halfLife":"52.7s","nn":"","nuclearSpin":"1\/2-","daughterIsotopes":"","isotopicComposition":"Syn","atomicMass":"0.743MeV"},{"nuclideSymbol":"Nb98","decayEnergy":"4.586","decayModes":"β-","zp":"","halfLife":"2.86s","nn":"57","nuclearSpin":"1+","daughterIsotopes":"Mo98","isotopicComposition":"Syn","atomicMass":"97.9103"},{"nuclideSymbol":"MS","decayEnergy":"4.670","decayModes":"β-","zp":"99.9","halfLife":"51.3m","nn":"","nuclearSpin":"5+","daughterIsotopes":"Mo98","isotopicComposition":"Syn","atomicMass":"0.084MeV"},{"nuclideSymbol":"","decayEnergy":"0.084","decayModes":"IT","zp":"<0.2","halfLife":"51.3m","nn":"","nuclearSpin":"","daughterIsotopes":"Nb98","isotopicComposition":"","atomicMass":""},{"nuclideSymbol":"Nb99","decayEnergy":"3.639","decayModes":"β-","zp":"","halfLife":"15s","nn":"58","nuclearSpin":"9\/2+","daughterIsotopes":"Mo99","isotopicComposition":"Syn","atomicMass":"98.9116"},{"nuclideSymbol":"MS","decayEnergy":"4.004","decayModes":"β-","zp":">96.2","halfLife":"2.6m","nn":"","nuclearSpin":"1\/2-","daughterIsotopes":"Mo99","isotopicComposition":"Syn","atomicMass":"0.365MeV"},{"nuclideSymbol":"","decayEnergy":"0.365","decayModes":"IT","zp":"<3.8","halfLife":"2.6m","nn":"","nuclearSpin":"","daughterIsotopes":"","isotopicComposition":"","atomicMass":""},{"nuclideSymbol":"Nb100","decayEnergy":"6.250","decayModes":"β-","zp":"","halfLife":"1.5s","nn":"59","nuclearSpin":"1+","daughterIsotopes":"Mo100","isotopicComposition":"Syn","atomicMass":"99.9142"},{"nuclideSymbol":"MS","decayEnergy":"6.750","decayModes":"β-","zp":"","halfLife":"2.99s","nn":"","nuclearSpin":"4+, 5+","daughterIsotopes":"Mo100","isotopicComposition":"Syn","atomicMass":"0.500MeV"},{"nuclideSymbol":"Nb101","decayEnergy":"4.569","decayModes":"β-","zp":"","halfLife":"7.1s","nn":"60","nuclearSpin":"5\/2+","daughterIsotopes":"Mo101","isotopicComposition":"Syn","atomicMass":"100.9153"},{"nuclideSymbol":"Nb102","decayEnergy":"7.210","decayModes":"β-","zp":"","halfLife":"1.3s","nn":"61","nuclearSpin":"1+","daughterIsotopes":"Mo102","isotopicComposition":"Syn","atomicMass":"101.918"},{"nuclideSymbol":"MS","decayEnergy":"7.210","decayModes":"β-","zp":"","halfLife":"4.3s","nn":"","nuclearSpin":"","daughterIsotopes":"Mo102","isotopicComposition":"Syn","atomicMass":"0.000MeV"},{"nuclideSymbol":"Nb103","decayEnergy":"5.530","decayModes":"β-","zp":"","halfLife":"1.5s","nn":"62","nuclearSpin":"5\/2+","daughterIsotopes":"Mo103","isotopicComposition":"Syn","atomicMass":"102.9191"},{"nuclideSymbol":"Nb104","decayEnergy":"0.550","decayModes":"β- + N","zp":"0.71","halfLife":"4.8s","nn":"63","nuclearSpin":"1+","daughterIsotopes":"Mo103","isotopicComposition":"Syn","atomicMass":"103.922"},{"nuclideSymbol":"","decayEnergy":"8.110","decayModes":"β-","zp":"","halfLife":"4.8s","nn":"","nuclearSpin":"","daughterIsotopes":"Mo104","isotopicComposition":"","atomicMass":""},{"nuclideSymbol":"MS","decayEnergy":"8.325","decayModes":"β-","zp":"","halfLife":"0.92s","nn":"","nuclearSpin":"","daughterIsotopes":"Mo104","isotopicComposition":"Syn","atomicMass":"0.215MeV"},{"nuclideSymbol":"Nb105","decayEnergy":"6.490","decayModes":"β-","zp":"","halfLife":"2.95s","nn":"64","nuclearSpin":"5\/2+","daughterIsotopes":"Mo105","isotopicComposition":"Syn","atomicMass":"104.924"},{"nuclideSymbol":"Nb106","decayEnergy":"9.300","decayModes":"β-","zp":"","halfLife":"1.02s","nn":"65","nuclearSpin":"","daughterIsotopes":"Mo106","isotopicComposition":"Syn","atomicMass":"105.928"},{"nuclideSymbol":"Nb107","decayEnergy":"7.900","decayModes":"β-","zp":"","halfLife":"330ms","nn":"66","nuclearSpin":"","daughterIsotopes":"Mo107","isotopicComposition":"Syn","atomicMass":"106.93"},{"nuclideSymbol":"Nb108","nuclearSpin":"2+","decayModes":"","halfLife":"0.193s","nn":"67","daughterIsotopes":"","isotopicComposition":"Syn","atomicMass":"107.935"},{"nuclideSymbol":"Nb109","decayEnergy":"5.000","decayModes":"β- + N","zp":"31","halfLife":"0.19s","nn":"68","nuclearSpin":"","daughterIsotopes":"Mo108","isotopicComposition":"Syn","atomicMass":"108.938"},{"nuclideSymbol":"","decayEnergy":"9.100","decayModes":"β-","zp":"","halfLife":"0.19s","nn":"","nuclearSpin":"","daughterIsotopes":"Mo109","isotopicComposition":"","atomicMass":""},{"nuclideSymbol":"Nb110","decayEnergy":"5.800","decayModes":"β- + N","zp":"40","halfLife":"0.17s","nn":"69","nuclearSpin":"","daughterIsotopes":"Mo109","isotopicComposition":"Syn","atomicMass":"109.943"},{"nuclideSymbol":"","decayEnergy":"12.100","decayModes":"β-","zp":"","halfLife":"0.17s","nn":"","nuclearSpin":"","daughterIsotopes":"Mo110","isotopicComposition":"","atomicMass":""}],"elasticModulusYoungs":"105","atomicMassFootnote":"","incompatibilities":"","fillingOrbital":[{"4d":"4"}],"atomicRadius":"2.08","enthalpyOfVaporization":"696.6","heatOfVaporization":"682","hardnessScaleBrinell":"736","group":"5","atomicNumber":41,"relativeGasDensity":"","ionizationPotentialThird":"25.04","crossSection":"1.15","electroChemicalEquivalent":"0.69327","electronConfiguration":{"4p":"6","5s":"1","3p":"6","4s":"2","2p":"6","3s":"2","2s":"2","3d":"10","1s":"2","4d":"4"},"criticalTemperature":"","heatOfFusion":"26.4"}