{"hardnessScaleMohs":"","opticalReflectivity":"60","meltingPointFootnote":"","conductivityElectrical":"0.0157","standardCondition":"Solid","crystalStructure":"Hexagonal","coefficientOfLinealThermalExpansion":"0.0000086","flammabilityClass":"","molarHeatCapacity":"27.45","numberOfNeutrons":"60","series":"Lanthanide","vaporPressure":{"pa100k":"3603","pa100kFootnote":"i","pa100Footnote":"","pa100":"1725.3","pa1Footnote":"","pa1":"1322.3","pa1kFootnote":"i","pa1k":"2023","pa10kFootnote":"i","pa10Footnote":"","pa10k":"2442","pa10":"1501.2"},"casRegistryNumber":"7440-00-8","oxidationStates":"3","lineSpectra":[{"intensity":"0","airWavelength":"0","spectrum":"TBD"}],"numberOfElectrons":"","magneticSusceptibility":"+5930","atomicVolume":"20.6","abundanceCrust":"4.15x10¹","boilingPoint":"3074","discoveryYear":"1895","electroNegativity":"1.14","meltingPoint":"1021","elasticModulusBulk":"32","boilingPointFootnote":"","ionizationPotentialSecond":"10.727","conductivityThermal":"0.165","discoveryLocation":"Austria","descr":"Silvery rare earth metal","elasticModulusRigidity":"16","discoverer":"C.F. Aver von Welsbach","ionicRadius":"0.995","numberOfProtons":"84","abundanceSea":"2.8x10⁻⁶","atomicMass":"144.24","molarVolume":"20.6","ionizationPotentialFirst":"5.53","hardnessScaleVickers":"343","enthalpyOfAtomization":"322","density":"7.01","enthalpyOfFusion":"7.14","opticalRefractiveIndex":"","qualitativeSolubility":"","name":"Neodymium","specificHeat":"0.190","atomicMassUncertainty":3,"valenceElectronPotential":"43.4","covalentRadius":"1.64","electronWorkFunction":"3.2","valenceElectrons":[{"4f":"4"},{"6s":"2"}],"atomicMassKnownAccurately":true,"period":"6","symbol":"Nd","nuclidesAndIsotopes":[{"nuclideSymbol":"","decayEnergy":"","decayModes":"","zp":"","halfLife":"","nn":"","nuclearSpin":"","daughterIsotopes":"","isotopicComposition":"","atomicMass":""}],"elasticModulusYoungs":"41","atomicMassFootnote":"g","incompatibilities":"","fillingOrbital":[{"4f":"4"}],"atomicRadius":"2.64","enthalpyOfVaporization":"273","heatOfVaporization":"273","hardnessScaleBrinell":"265","group":"","atomicNumber":60,"relativeGasDensity":"","ionizationPotentialThird":"22.076","crossSection":"49","electroChemicalEquivalent":"1.7939","electronConfiguration":{"3d":"10","5s":"2","4s":"2","3s":"2","4f":"4","5p":"6","2s":"2","4p":"6","1s":"2","3p":"6","2p":"6","4d":"10","6s":"2"},"criticalTemperature":"","heatOfFusion":"7.14"}