{"hardnessScaleMohs":"","opticalReflectivity":"","meltingPointFootnote":"","conductivityElectrical":"","standardCondition":"Gas","crystalStructure":"CubicFace","coefficientOfLinealThermalExpansion":"","flammabilityClass":"","molarHeatCapacity":"20.786","numberOfNeutrons":"10","series":"Noble Gas","vaporPressure":{"pa10":"-260","pa100kFootnote":"","pa100Footnote":"s","pa100":"-258","pa1Footnote":"s","pa1":"-261","pa1kFootnote":"s","pa1k":"-255","pa10kFootnote":"s","pa10Footnote":"s","pa10k":"-252","pa100k":"-246.1"},"casRegistryNumber":"7440-01-9","oxidationStates":"","lineSpectra":[{"intensity":"150","airWavelength":"4219.7450","spectrum":"Ne II"},{"intensity":"100","airWavelength":"4233.8500","spectrum":"Ne II"},{"intensity":"120","airWavelength":"4250.6490","spectrum":"Ne II"},{"intensity":"120","airWavelength":"4369.8620","spectrum":"Ne II"},{"intensity":"70","airWavelength":"4379.4000","spectrum":"Ne II"},{"intensity":"150","airWavelength":"4379.5500","spectrum":"Ne II"},{"intensity":"100","airWavelength":"4385.0590","spectrum":"Ne II"},{"intensity":"200","airWavelength":"4391.9910","spectrum":"Ne II"},{"intensity":"150","airWavelength":"4397.9900","spectrum":"Ne II"},{"intensity":"150","airWavelength":"4409.2990","spectrum":"Ne II"},{"intensity":"100","airWavelength":"4413.2150","spectrum":"Ne II"},{"intensity":"100","airWavelength":"4421.3890","spectrum":"Ne II"},{"intensity":"100","airWavelength":"4428.5160","spectrum":"Ne II"},{"intensity":"100","airWavelength":"4428.6340","spectrum":"Ne II"},{"intensity":"150","airWavelength":"4430.9040","spectrum":"Ne II"},{"intensity":"150","airWavelength":"4430.9420","spectrum":"Ne II"},{"intensity":"120","airWavelength":"4457.0490","spectrum":"Ne II"},{"intensity":"100","airWavelength":"4522.7200","spectrum":"Ne II"},{"intensity":"100","airWavelength":"4537.7545","spectrum":"Ne II"},{"intensity":"100","airWavelength":"4569.0570","spectrum":"Ne II"},{"intensity":"150","airWavelength":"4704.3949","spectrum":"Ne II"},{"intensity":"120","airWavelength":"4708.8594","spectrum":"Ne II"},{"intensity":"100","airWavelength":"4710.0650","spectrum":"Ne II"},{"intensity":"150","airWavelength":"4712.0633","spectrum":"Ne II"},{"intensity":"150","airWavelength":"4715.3440","spectrum":"Ne II"},{"intensity":"50","airWavelength":"4752.73200","spectrum":"Ne II"},{"intensity":"100","airWavelength":"4788.9258","spectrum":"Ne II"},{"intensity":"50","airWavelength":"4790.2195","spectrum":"Ne II"},{"intensity":"100","airWavelength":"4827.3380","spectrum":"Ne II"},{"intensity":"100","airWavelength":"4884.9170","spectrum":"Ne II"},{"intensity":"50","airWavelength":"5005.1587","spectrum":"Ne II"},{"intensity":"50","airWavelength":"5037.7512","spectrum":"Ne II"},{"intensity":"50","airWavelength":"5144.9384","spectrum":"Ne II"},{"intensity":"60","airWavelength":"5330.7775","spectrum":"Ne II"},{"intensity":"100","airWavelength":"5341.0938","spectrum":"Ne II"},{"intensity":"60","airWavelength":"5343.2834","spectrum":"Ne II"},{"intensity":"200","airWavelength":"5400.5618","spectrum":"Ne II"},{"intensity":"50","airWavelength":"5562.7662","spectrum":"Ne II"},{"intensity":"50","airWavelength":"5656.6588","spectrum":"Ne II"},{"intensity":"50","airWavelength":"5719.2248","spectrum":"Ne II"},{"intensity":"50","airWavelength":"5748.2985","spectrum":"Ne II"},{"intensity":"70","airWavelength":"5764.4188","spectrum":"Ne II"},{"intensity":"50","airWavelength":"5804.4496","spectrum":"Ne II"},{"intensity":"50","airWavelength":"5820.1558","spectrum":"Ne II"},{"intensity":"200","airWavelength":"5852.4879","spectrum":"Ne II"},{"intensity":"50","airWavelength":"5872.8275","spectrum":"Ne II"},{"intensity":"100","airWavelength":"5881.8952","spectrum":"Ne II"},{"intensity":"5","airWavelength":"5902.4623","spectrum":"Ne II"},{"intensity":"5","airWavelength":"5906.4294","spectrum":"Ne II"},{"intensity":"50","airWavelength":"5944.8342","spectrum":"Ne II"},{"intensity":"50","airWavelength":"5965.4710","spectrum":"Ne II"},{"intensity":"50","airWavelength":"5974.6273","spectrum":"Ne II"},{"intensity":"60","airWavelength":"5975.5340","spectrum":"Ne II"},{"intensity":"15","airWavelength":"5987.9074","spectrum":"Ne II"},{"intensity":"100","airWavelength":"6029.9969","spectrum":"Ne II"},{"intensity":"100","airWavelength":"6074.3377","spectrum":"Ne II"},{"intensity":"30","airWavelength":"6096.1631","spectrum":"Ne II"},{"intensity":"10","airWavelength":"6128.4499","spectrum":"Ne II"},{"intensity":"100","airWavelength":"6143.0626","spectrum":"Ne II"},{"intensity":"100","airWavelength":"6163.5939","spectrum":"Ne II"},{"intensity":"15","airWavelength":"6182.1460","spectrum":"Ne II"},{"intensity":"100","airWavelength":"6217.2812","spectrum":"Ne II"},{"intensity":"100","airWavelength":"6266.4950","spectrum":"Ne II"},{"intensity":"10","airWavelength":"6304.7889","spectrum":"Ne II"},{"intensity":"30","airWavelength":"6328.1646","spectrum":"Ne II"},{"intensity":"100","airWavelength":"6334.4278","spectrum":"Ne II"},{"intensity":"100","airWavelength":"6382.9917","spectrum":"Ne II"},{"intensity":"200","airWavelength":"6402.248","spectrum":"Ne II"},{"intensity":"150","airWavelength":"6506.5281","spectrum":"Ne II"},{"intensity":"10","airWavelength":"6532.8822","spectrum":"Ne II"},{"intensity":"100","airWavelength":"6598.9529","spectrum":"Ne II"},{"intensity":"15","airWavelength":"6652.0927","spectrum":"Ne II"},{"intensity":"50","airWavelength":"6678.2762","spectrum":"Ne II"},{"intensity":"7","airWavelength":"6717.0430","spectrum":"Ne II"},{"intensity":"1000","airWavelength":"6929.4673","spectrum":"Ne II"}],"numberOfElectrons":"10","magneticSusceptibility":"-6.96","atomicVolume":"16.7","abundanceCrust":"5x10⁻³","boilingPoint":"-246.08","discoveryYear":"1898","electroNegativity":"","meltingPoint":"-248.59","elasticModulusBulk":"","boilingPointFootnote":"","ionizationPotentialSecond":"40.962","conductivityThermal":"0.000493","discoveryLocation":"England","descr":"Colorless, odorless, tasteless noble gas.","elasticModulusRigidity":"","discoverer":"Sir William Ramsey, M.W. Travers","ionicRadius":"","numberOfProtons":"10","abundanceSea":"1.2x10⁻⁴","atomicMass":"20.1797","ionizationPotentialFirst":"21.564","molarVolume":"16.8","hardnessScaleVickers":"","enthalpyOfAtomization":"","density":"0.825","enthalpyOfFusion":"0.33","opticalRefractiveIndex":"1.000067","qualitativeSolubility":"soluble in H₂0","name":"Neon","specificHeat":"1.030","atomicMassUncertainty":6,"valenceElectronPotential":"","covalentRadius":"0.71","electronWorkFunction":"","valenceElectrons":[{"2p":"6","2s":"2"}],"atomicMassKnownAccurately":true,"period":"2","symbol":"Ne","nuclidesAndIsotopes":[{"nuclideSymbol":"Ne16","decayEnergy":"0.080","decayModes":"P","zp":"","halfLife":"122keV","nn":"6","nuclearSpin":"0+","daughterIsotopes":"F15","isotopicComposition":"Syn","atomicMass":"16.0258"},{"nuclideSymbol":"Ne17","decayEnergy":"14.530","decayModes":"ξ","zp":"","halfLife":"109.2ms","nn":"7","nuclearSpin":"1\/2-","daughterIsotopes":"F17","isotopicComposition":"Syn","atomicMass":"17.0177"},{"nuclideSymbol":"","decayEnergy":"8.710","decayModes":"ξ + α","zp":"","halfLife":"109.2ms","nn":"","nuclearSpin":"","daughterIsotopes":"N13","isotopicComposition":"","atomicMass":""},{"nuclideSymbol":"","decayEnergy":"13.930","decayModes":"ξ + P","zp":"","halfLife":"109.2ms","nn":"","nuclearSpin":"","daughterIsotopes":"O16","isotopicComposition":"","atomicMass":""},{"nuclideSymbol":"Ne18","decayEnergy":"4.446","decayModes":"ξ","zp":"","halfLife":"1672ms","nn":"8","nuclearSpin":"0+","daughterIsotopes":"F18","isotopicComposition":"Syn","atomicMass":"18.0057"},{"nuclideSymbol":"Ne19","decayEnergy":"3.238","decayModes":"ξ","zp":"","halfLife":"17.22s","nn":"9","nuclearSpin":"1\/2+","daughterIsotopes":"F19","isotopicComposition":"Syn","atomicMass":"19.0019"},{"nuclideSymbol":"Ne20","decayEnergy":"","decayModes":"","zp":"","halfLife":"Stable","nn":"10","nuclearSpin":"0+","daughterIsotopes":"","isotopicComposition":"90.48","atomicMass":"19.9924"},{"nuclideSymbol":"Ne21","decayEnergy":"","decayModes":"","zp":"","halfLife":"Stable","nn":"11","nuclearSpin":"3\/2+","daughterIsotopes":"","isotopicComposition":"0.27","atomicMass":"20.9938"},{"nuclideSymbol":"Ne22","decayEnergy":"","decayModes":"","zp":"","halfLife":"Stable","nn":"12","nuclearSpin":"0+","daughterIsotopes":"","isotopicComposition":"9.25","atomicMass":"21.9914"},{"nuclideSymbol":"Ne23","decayEnergy":"4.376","decayModes":"β-","zp":"","halfLife":"37.24s","nn":"13","nuclearSpin":"5\/2+","daughterIsotopes":"Na23","isotopicComposition":"Syn","atomicMass":"22.9945"},{"nuclideSymbol":"Ne24","decayEnergy":"2.470","decayModes":"β-","zp":"","halfLife":"3.38m","nn":"14","nuclearSpin":"0+","daughterIsotopes":"Na24","isotopicComposition":"Syn","atomicMass":"23.9936"},{"nuclideSymbol":"Ne25","decayEnergy":"7.300","decayModes":"β-","zp":"","halfLife":"602ms","nn":"15","nuclearSpin":"3\/2+, 1\/2+","daughterIsotopes":"Na25","isotopicComposition":"Syn","atomicMass":"24.9978"},{"nuclideSymbol":"Ne26","decayEnergy":"7.330","decayModes":"β-","zp":"","halfLife":"197ms","nn":"16","nuclearSpin":"0+","daughterIsotopes":"Na26","isotopicComposition":"Syn","atomicMass":"26.0005"},{"nuclideSymbol":"Ne27","decayEnergy":"12.670","decayModes":"β-","zp":"","halfLife":"32ms","nn":"17","nuclearSpin":"","daughterIsotopes":"Na27","isotopicComposition":"Syn","atomicMass":"27.0076"},{"nuclideSymbol":"","decayEnergy":"5.920","decayModes":"β- + N","zp":"","halfLife":"32ms","nn":"","nuclearSpin":"","daughterIsotopes":"Na26","isotopicComposition":"","atomicMass":""},{"nuclideSymbol":"Ne28","decayEnergy":"8.790","decayModes":"β- + N","zp":"16","halfLife":"17ms","nn":"18","nuclearSpin":"0+","daughterIsotopes":"Na27","isotopicComposition":"Syn","atomicMass":"28.012"},{"nuclideSymbol":"","decayEnergy":"12.310","decayModes":"β-","zp":"","halfLife":"17ms","nn":"","nuclearSpin":"","daughterIsotopes":"Na28","isotopicComposition":"","atomicMass":""},{"nuclideSymbol":"Ne29","decayEnergy":"","decayModes":"β- + N","zp":"","halfLife":"0.2s","nn":"19","nuclearSpin":"","daughterIsotopes":"Na28","isotopicComposition":"Syn","atomicMass":"29.019"},{"nuclideSymbol":"Ne30","decayEnergy":"","decayModes":"","zp":"","halfLife":">200ns","nn":"20","nuclearSpin":"0+","daughterIsotopes":"","isotopicComposition":"Syn","atomicMass":"30.024"},{"nuclideSymbol":"Ne31","decayEnergy":"","decayModes":"","zp":"","halfLife":"","nn":"21","nuclearSpin":"","daughterIsotopes":"","isotopicComposition":"Syn","atomicMass":"31.033"},{"nuclideSymbol":"Ne32","decayEnergy":"","decayModes":"","zp":"","halfLife":">200ns","nn":"22","nuclearSpin":"0+","daughterIsotopes":"","isotopicComposition":"Syn","atomicMass":"32.04"}],"elasticModulusYoungs":"","atomicMassFootnote":"g m","incompatibilities":"","fillingOrbital":[{"2p":"6"}],"atomicRadius":"0.51","enthalpyOfVaporization":"1.71","heatOfVaporization":"1.7326","hardnessScaleBrinell":"","group":"18","atomicNumber":10,"relativeGasDensity":"","ionizationPotentialThird":"63.45","crossSection":"38","electroChemicalEquivalent":"","electronConfiguration":{"2p":"6","2s":"2","1s":"2"},"criticalTemperature":"-228.7","heatOfFusion":"0.3317"}