{"hardnessScaleMohs":"","opticalReflectivity":"","meltingPointFootnote":"","conductivityElectrical":"","standardCondition":"Synthetic","crystalStructure":"Unknown","coefficientOfLinealThermalExpansion":"","flammabilityClass":"","molarHeatCapacity":"","numberOfNeutrons":"170","series":"Metal","vaporPressure":{"pa100k":"","pa100kFootnote":"","pa100Footnote":"","pa100":"","pa1Footnote":"","pa1":"","pa1kFootnote":"","pa1k":"","pa10kFootnote":"","pa10Footnote":"","pa10k":"","pa10":""},"casRegistryNumber":"54084-70-7","oxidationStates":"","lineSpectra":[{"intensity":"0","airWavelength":"0","spectrum":"TBD"}],"numberOfElectrons":"113","magneticSusceptibility":"","atomicVolume":"","abundanceCrust":"","boilingPoint":"","discoveryYear":"2003","electroNegativity":"","meltingPoint":"","elasticModulusBulk":"","boilingPointFootnote":"","ionizationPotentialSecond":"","conductivityThermal":"","discoveryLocation":"Russia","descr":"Man made element of which only a few atoms have ever been created.","elasticModulusRigidity":"","discoverer":"Dubna (Joint Institute for Nuclear Research)","ionicRadius":"","numberOfProtons":"113","abundanceSea":"","atomicMass":"286","molarVolume":"","ionizationPotentialFirst":"","hardnessScaleVickers":"","enthalpyOfAtomization":"","density":"","enthalpyOfFusion":"","opticalRefractiveIndex":"","qualitativeSolubility":"","name":"Nihonium","specificHeat":"","valenceElectronPotential":"","covalentRadius":"","electronWorkFunction":"","valenceElectrons":[{"7p":"1"}],"atomicMassKnownAccurately":false,"period":"7","symbol":"Nh","nuclidesAndIsotopes":[{"nuclideSymbol":"","decayEnergy":"","decayModes":"","zp":"","halfLife":"","nn":"","nuclearSpin":"","daughterIsotopes":"","isotopicComposition":"","atomicMass":""}],"elasticModulusYoungs":"","atomicMassFootnote":"a","incompatibilities":"","fillingOrbital":[{"7p":"1"}],"atomicRadius":"","enthalpyOfVaporization":"","heatOfVaporization":"","hardnessScaleBrinell":"","group":"13","atomicNumber":113,"relativeGasDensity":"","ionizationPotentialThird":"","crossSection":"","electroChemicalEquivalent":"","electronConfiguration":{"3d":"10","5s":"2","7p":"1","4s":"2","5f":"14","6p":"","3s":"2","4f":"14","5p":"6","2s":"2","4p":"6","1s":"2","3p":"6","6d":"10","2p":"6","5d":"10","7s":"2","4d":"10","6s":""},"criticalTemperature":"","heatOfFusion":""}