{"hardnessScaleMohs":"4","opticalReflectivity":"72","meltingPointFootnote":"","conductivityElectrical":"0.143","standardCondition":"Solid","crystalStructure":"CubicFace","coefficientOfLinealThermalExpansion":"0.0000133","flammabilityClass":"Combustable solid.","molarHeatCapacity":"26.07","numberOfNeutrons":"31","series":"Transition Metal","vaporPressure":{"pa10":"1677","pa100kFootnote":"","pa100Footnote":"","pa100":"1881","pa1Footnote":"","pa1":"1510","pa1kFootnote":"","pa1k":"2137","pa10kFootnote":"","pa10Footnote":"","pa10k":"2468","pa100k":"2911"},"casRegistryNumber":"7440-02-0","oxidationStates":"2, 3","lineSpectra":[{"intensity":"80","airWavelength":"4992.0240","spectrum":"Ni II"}],"numberOfElectrons":"28","magneticSusceptibility":"Ferromagnetic","atomicVolume":"6.59","abundanceCrust":"8.4x10¹","boilingPoint":"2913","discoveryYear":"1751","electroNegativity":"1.91","meltingPoint":"1455","elasticModulusBulk":"180","boilingPointFootnote":"","ionizationPotentialSecond":"18.168","conductivityThermal":"0.907","discoveryLocation":"Sweden","descr":"White transition metal.","elasticModulusRigidity":"76","discoverer":"Axel Cronstedt","ionicRadius":"0.69","numberOfProtons":"28","abundanceSea":"5.6x10⁻⁴","atomicMass":"58.6934","ionizationPotentialFirst":"7.635","molarVolume":"6.59","hardnessScaleVickers":"638","enthalpyOfAtomization":"422.6","density":"8.90","enthalpyOfFusion":"17.57","opticalRefractiveIndex":"","qualitativeSolubility":"insoluble in H₂0; soluble in diluted acid","name":"Nickel","specificHeat":"0.444","atomicMassUncertainty":2,"valenceElectronPotential":"47","covalentRadius":"1.15","electronWorkFunction":"5.15","valenceElectrons":[{"3d":"8"},{"4s":"2"}],"atomicMassKnownAccurately":true,"period":"4","symbol":"Ni","nuclidesAndIsotopes":[{"nuclideSymbol":"Ni50","decayEnergy":"","decayModes":"","zp":"","halfLife":">150ns","nn":"22","nuclearSpin":"0+","daughterIsotopes":"","isotopicComposition":"Syn","atomicMass":"49.996"},{"nuclideSymbol":"Ni51","decayEnergy":"","decayModes":"","zp":"","halfLife":">200ns","nn":"23","nuclearSpin":"7\/2-","daughterIsotopes":"","isotopicComposition":"Syn","atomicMass":"50.988"},{"nuclideSymbol":"Ni52","decayEnergy":"10.270","decayModes":"ξ + P","zp":"17","halfLife":"38ms","nn":"24","nuclearSpin":"0+","daughterIsotopes":"Fe51","isotopicComposition":"Syn","atomicMass":"51.9757"},{"nuclideSymbol":"","decayEnergy":"11.260","decayModes":"ξ","zp":"","halfLife":"38ms","nn":"","nuclearSpin":"","daughterIsotopes":"Co52","isotopicComposition":"","atomicMass":""},{"nuclideSymbol":"Ni53","decayEnergy":"13.260","decayModes":"ξ","zp":"","halfLife":"45ms","nn":"25","nuclearSpin":"7\/2-","daughterIsotopes":"Co53","isotopicComposition":"Syn","atomicMass":"52.968"},{"nuclideSymbol":"Ni54","decayEnergy":"8.800","decayModes":"ξ","zp":"","halfLife":"140ms","nn":"26","nuclearSpin":"0+","daughterIsotopes":"Co54","isotopicComposition":"Syn","atomicMass":"53.9579"},{"nuclideSymbol":"Ni55","decayEnergy":"8.694","decayModes":"ξ","zp":"","halfLife":"212.1ms","nn":"27","nuclearSpin":"7\/2-","daughterIsotopes":"Co55","isotopicComposition":"Syn","atomicMass":"54.9513"},{"nuclideSymbol":"Ni56","decayEnergy":"2.136","decayModes":"ξ","zp":"","halfLife":"6.077d","nn":"28","nuclearSpin":"0+","daughterIsotopes":"Co56","isotopicComposition":"Syn","atomicMass":"55.9421"},{"nuclideSymbol":"Ni57","decayEnergy":"3.264","decayModes":"ξ","zp":"","halfLife":"35.6h","nn":"29","nuclearSpin":"3\/2-","daughterIsotopes":"Co57","isotopicComposition":"Syn","atomicMass":"56.9398"},{"nuclideSymbol":"Ni58","decayEnergy":"","decayModes":"","zp":"","halfLife":"Stable","nn":"30","nuclearSpin":"","daughterIsotopes":"","isotopicComposition":"68.077","atomicMass":"57.9354"},{"nuclideSymbol":"Ni59","decayEnergy":"1.072","decayModes":"ξ","zp":"","halfLife":"76000y","nn":"31","nuclearSpin":"3\/2-","daughterIsotopes":"Co59","isotopicComposition":"Syn","atomicMass":"58.9344"},{"nuclideSymbol":"Ni60","decayEnergy":"","decayModes":"","zp":"","halfLife":"Stable","nn":"32","nuclearSpin":"0+","daughterIsotopes":"","isotopicComposition":"26.223","atomicMass":"59.9308"},{"nuclideSymbol":"Ni61","decayEnergy":"","decayModes":"","zp":"","halfLife":"Stable","nn":"33","nuclearSpin":"3\/2-","daughterIsotopes":"","isotopicComposition":"1.14","atomicMass":"60.9311"},{"nuclideSymbol":"Ni62","decayEnergy":"","decayModes":"","zp":"","halfLife":"Stable","nn":"34","nuclearSpin":"0+","daughterIsotopes":"","isotopicComposition":"3.634","atomicMass":"61.9284"},{"nuclideSymbol":"Ni63","decayEnergy":"0.067","decayModes":"β-","zp":"","halfLife":"100.1y","nn":"35","nuclearSpin":"1\/2-","daughterIsotopes":"Cu63","isotopicComposition":"Syn","atomicMass":"62.9297"},{"nuclideSymbol":"Ni64","decayEnergy":"","decayModes":"","zp":"","halfLife":"Stable","nn":"36","nuclearSpin":"0+","daughterIsotopes":"","isotopicComposition":"0.926","atomicMass":"63.928"},{"nuclideSymbol":"Ni65","decayEnergy":"2.137","decayModes":"β-","zp":"","halfLife":"2.5172h","nn":"37","nuclearSpin":"5\/2-","daughterIsotopes":"Cu65","isotopicComposition":"Syn","atomicMass":"64.9301"},{"nuclideSymbol":"Ni66","decayEnergy":"0.225","decayModes":"β-","zp":"","halfLife":"54.6h","nn":"38","nuclearSpin":"0+","daughterIsotopes":"Cu66","isotopicComposition":"Syn","atomicMass":"65.9291"},{"nuclideSymbol":"Ni67","decayEnergy":"3.558","decayModes":"β-","zp":"","halfLife":"21s","nn":"39","nuclearSpin":"1\/2-","daughterIsotopes":"Cu67","isotopicComposition":"Syn","atomicMass":"66.9316"},{"nuclideSymbol":"Ni68","decayEnergy":"2.060","decayModes":"β-","zp":"","halfLife":"19s","nn":"40","nuclearSpin":"0+","daughterIsotopes":"Cu68","isotopicComposition":"Syn","atomicMass":"67.9318"},{"nuclideSymbol":"MS","decayEnergy":"2.847","decayModes":"IT","zp":"","halfLife":"0.86ms","nn":"","nuclearSpin":"","daughterIsotopes":"Ni68","isotopicComposition":"Syn","atomicMass":"2.847MeV"},{"nuclideSymbol":"Ni69","decayEnergy":"5.360","decayModes":"β-","zp":"","halfLife":"11.4s","nn":"41","nuclearSpin":"","daughterIsotopes":"Cu69","isotopicComposition":"Syn","atomicMass":"68.935"},{"nuclideSymbol":"Ni70","decayEnergy":"3.500","decayModes":"β-","zp":"","halfLife":"","nn":"42","nuclearSpin":"0+","daughterIsotopes":"Cu70","isotopicComposition":"Syn","atomicMass":"69.936"},{"nuclideSymbol":"Ni71","decayEnergy":"6.900","decayModes":"β-","zp":"","halfLife":"1.86s","nn":"43","nuclearSpin":"","daughterIsotopes":"Cu71","isotopicComposition":"Syn","atomicMass":"70.94"},{"nuclideSymbol":"Ni72","decayEnergy":"5.200","decayModes":"β-","zp":"","halfLife":"2.1s","nn":"44","nuclearSpin":"0+","daughterIsotopes":"Cu72","isotopicComposition":"Syn","atomicMass":"71.941"},{"nuclideSymbol":"Ni73","decayEnergy":"8.800","decayModes":"β-","zp":"","halfLife":"0.7s","nn":"45","nuclearSpin":"7\/2+","daughterIsotopes":"Cu73","isotopicComposition":"Syn","atomicMass":"72.946"},{"nuclideSymbol":"Ni74","decayEnergy":"7.100","decayModes":"β-","zp":"","halfLife":"0.54s","nn":"46","nuclearSpin":"0+","daughterIsotopes":"Cu74","isotopicComposition":"Syn","atomicMass":"73.948"},{"nuclideSymbol":"Ni75","decayEnergy":"","decayModes":"","zp":"","halfLife":"0.6s","nn":"47","nuclearSpin":"7\/2+","daughterIsotopes":"","isotopicComposition":"Syn","atomicMass":"74.953"},{"nuclideSymbol":"Ni76","decayEnergy":"","decayModes":"","zp":"","halfLife":"0.24s","nn":"48","nuclearSpin":"0+","daughterIsotopes":"","isotopicComposition":"Syn","atomicMass":"75.955"},{"nuclideSymbol":"Ni77","decayEnergy":"","decayModes":"","zp":"","halfLife":"","nn":"49","nuclearSpin":"","daughterIsotopes":"","isotopicComposition":"Syn","atomicMass":"76.96"},{"nuclideSymbol":"Ni78","decayEnergy":"","decayModes":"","zp":"","halfLife":"","nn":"50","nuclearSpin":"0+","daughterIsotopes":"","isotopicComposition":"Syn","atomicMass":"77.96"}],"elasticModulusYoungs":"200","atomicMassFootnote":"","incompatibilities":"Strong acids, sulfur, selenium, wood and other combustables, nickel nitrate","fillingOrbital":[{"3d":"8"}],"atomicRadius":"1.62","enthalpyOfVaporization":"371.8","heatOfVaporization":"370.4","hardnessScaleBrinell":"700","group":"10","atomicNumber":28,"relativeGasDensity":"","ionizationPotentialThird":"35.17","crossSection":"4.54","electroChemicalEquivalent":"1.095","electronConfiguration":{"3p":"6","4s":"2","2p":"6","3s":"2","2s":"2","3d":"8","1s":"2"},"criticalTemperature":"","heatOfFusion":"17.47"}