{"hardnessScaleMohs":"","opticalReflectivity":"","meltingPointFootnote":"","conductivityElectrical":"0.00822","standardCondition":"Synthetic","crystalStructure":"Cubic","coefficientOfLinealThermalExpansion":"","flammabilityClass":"","molarHeatCapacity":"","numberOfNeutrons":"144","series":"Actinide","vaporPressure":{"pa100k":"","pa100kFootnote":"","pa100Footnote":"","pa100":"","pa1Footnote":"","pa1":"","pa1kFootnote":"","pa1k":"","pa10kFootnote":"","pa10Footnote":"","pa10k":"","pa10":""},"casRegistryNumber":"7439-99-8","oxidationStates":"6, 5, 4, 3","lineSpectra":[{"intensity":"0","airWavelength":"0","spectrum":"TBD"}],"numberOfElectrons":"93","magneticSusceptibility":"+575","atomicVolume":"11.62","abundanceCrust":"","boilingPoint":"3902","discoveryYear":"1940","electroNegativity":"1.36","meltingPoint":"644","elasticModulusBulk":"","boilingPointFootnote":"","ionizationPotentialSecond":"","conductivityThermal":"0.063","discoveryLocation":"United States","descr":"Man-made radioactive metal.","elasticModulusRigidity":"","discoverer":"E.M. McMillan, P.H. Abelson","ionicRadius":"0.75","numberOfProtons":"93","abundanceSea":"","atomicMass":"237.0482","molarVolume":"11.59","ionizationPotentialFirst":"6.19","hardnessScaleVickers":"","enthalpyOfAtomization":"","density":"20.2","enthalpyOfFusion":"3.2","opticalRefractiveIndex":"","qualitativeSolubility":"soluble in HCl","name":"Neptunium","specificHeat":"","valenceElectronPotential":"96","covalentRadius":"","electronWorkFunction":"","valenceElectrons":[{"5f":"4"},{"6d":"1"},{"7s":"2"}],"atomicMassKnownAccurately":false,"period":"7","symbol":"Np","nuclidesAndIsotopes":[{"nuclideSymbol":"","decayEnergy":"","decayModes":"","zp":"","halfLife":"","nn":"","nuclearSpin":"","daughterIsotopes":"","isotopicComposition":"","atomicMass":""}],"elasticModulusYoungs":"","atomicMassFootnote":"a","incompatibilities":"","fillingOrbital":[{"5f":"4"}],"atomicRadius":"","enthalpyOfVaporization":"","heatOfVaporization":"","hardnessScaleBrinell":"","group":"","atomicNumber":93,"relativeGasDensity":"","ionizationPotentialThird":"","crossSection":"170","electroChemicalEquivalent":"1.7689","electronConfiguration":{"3d":"10","5s":"2","4s":"2","5f":"4","6p":"6","3s":"2","4f":"14","5p":"6","2s":"2","4p":"6","1s":"2","3p":"6","6d":"1","2p":"6","5d":"10","7s":"2","4d":"10","6s":"2"},"criticalTemperature":"","heatOfFusion":"5.19"}