{"hardnessScaleMohs":"","opticalReflectivity":"","meltingPointFootnote":"","conductivityElectrical":"","standardCondition":"Gas","crystalStructure":"Cubic","coefficientOfLinealThermalExpansion":"","flammabilityClass":"Non-flammable gas (Oxidizer)","molarHeatCapacity":"29.378","numberOfNeutrons":"8","series":"Non Metal","vaporPressure":{"pa10":"","pa100kFootnote":"","pa100Footnote":"","pa100":"","pa1Footnote":"","pa1":"","pa1kFootnote":"","pa1k":"-211.9","pa10kFootnote":"","pa10Footnote":"","pa10k":"-200.5","pa100k":"-183.1"},"casRegistryNumber":"7782-44-7","oxidationStates":"-2, -1","lineSpectra":[{"intensity":"250","airWavelength":"4072.1570","spectrum":"O II"},{"intensity":"400","airWavelength":"4075.8620","spectrum":"O II"},{"intensity":"250","airWavelength":"4119.2150","spectrum":"O II"},{"intensity":"100","airWavelength":"4123.9900","spectrum":"N V"},{"intensity":"250","airWavelength":"4185.4490","spectrum":"O II"},{"intensity":"400","airWavelength":"4189.7890","spectrum":"O II"},{"intensity":"250","airWavelength":"4317.1380","spectrum":"O II"},{"intensity":"250","airWavelength":"4349.4260","spectrum":"O II"},{"intensity":"400","airWavelength":"4414.9050","spectrum":"O II"},{"intensity":"250","airWavelength":"4416.9740","spectrum":"O II"},{"intensity":"300","airWavelength":"4590.9720","spectrum":"O II"},{"intensity":"250","airWavelength":"4596.1750","spectrum":"O II"},{"intensity":"300","airWavelength":"4641.8100","spectrum":"O II"},{"intensity":"400","airWavelength":"4649.1350","spectrum":"O II"},{"intensity":"300","airWavelength":"4661.6330","spectrum":"O II"},{"intensity":"250","airWavelength":"4676.2350","spectrum":"O II"},{"intensity":"250","airWavelength":"4705.3520","spectrum":"O II"},{"intensity":"230","airWavelength":"4930.2700","spectrum":"O V"},{"intensity":"110","airWavelength":"5592.3700","spectrum":"O III"},{"intensity":"130","airWavelength":"5597.91","spectrum":"O V"},{"intensity":"130","airWavelength":"6155.9800","spectrum":"O I"},{"intensity":"150","airWavelength":"6156.7700","spectrum":"O I"},{"intensity":"150","airWavelength":"6158.1800","spectrum":"O I"},{"intensity":"130","airWavelength":"6455.9800","spectrum":"O I"},{"intensity":"130","airWavelength":"6500.24","spectrum":"O V"}],"numberOfElectrons":"8","magneticSusceptibility":"+3449","atomicVolume":"14","abundanceCrust":"4.61x10⁵","boilingPoint":"-182.95","discoveryYear":"1774","electroNegativity":"3.44","meltingPoint":"-218.79","elasticModulusBulk":"","boilingPointFootnote":"","ionizationPotentialSecond":"35.117","conductivityThermal":"0.0002674","discoveryLocation":"England\/Sweden","descr":"Colorless, odorless, tasteless gas.","elasticModulusRigidity":"","discoverer":"Joseph Priestley, Carl Wilhelm Scheele","ionicRadius":"1.4","numberOfProtons":"8","abundanceSea":"8.57x10⁵","atomicMass":"15.9994","ionizationPotentialFirst":"13.618","molarVolume":"14","hardnessScaleVickers":"","enthalpyOfAtomization":"249.4","density":"1.308","enthalpyOfFusion":"0.22","opticalRefractiveIndex":"1.000271 (gas) 1.221 (liguid)","qualitativeSolubility":"soluble in H₂0, ethanol, organic solvents","name":"Oxygen","specificHeat":"0.918","atomicMassUncertainty":3,"valenceElectronPotential":"-20.6","covalentRadius":"0.73","electronWorkFunction":"","valenceElectrons":[{"2p":"4","2s":"2"}],"atomicMassKnownAccurately":true,"period":"2","symbol":"O","nuclidesAndIsotopes":[{"nuclideSymbol":"O12","decayEnergy":"0.190","decayModes":"P","zp":"","halfLife":"0.4MeV","nn":"4","nuclearSpin":"0+","daughterIsotopes":"N11","isotopicComposition":"Syn","atomicMass":"12.034"},{"nuclideSymbol":"O13","decayEnergy":"17.765","decayModes":"ξ","zp":"","halfLife":"8.58ms","nn":"5","nuclearSpin":"3\/2-","daughterIsotopes":"N13","isotopicComposition":"Syn","atomicMass":"13.0248"},{"nuclideSymbol":"O14","decayEnergy":"5.143","decayModes":"ξ","zp":"","halfLife":"70.606s","nn":"6","nuclearSpin":"0+","daughterIsotopes":"N14","isotopicComposition":"Syn","atomicMass":"14.0086"},{"nuclideSymbol":"O15","decayEnergy":"2.754","decayModes":"ξ","zp":"","halfLife":"122.24s","nn":"7","nuclearSpin":"1\/2-","daughterIsotopes":"N15","isotopicComposition":"Syn","atomicMass":"15.0031"},{"nuclideSymbol":"O16","decayEnergy":"","decayModes":"","zp":"","halfLife":"Stable","nn":"8","nuclearSpin":"0+","daughterIsotopes":"","isotopicComposition":"99.762","atomicMass":"15.9949"},{"nuclideSymbol":"O17","decayEnergy":"","decayModes":"","zp":"","halfLife":"Stable","nn":"9","nuclearSpin":"5\/2+","daughterIsotopes":"","isotopicComposition":"0.038","atomicMass":"16.9991"},{"nuclideSymbol":"O18","decayEnergy":"","decayModes":"","zp":"","halfLife":"Stable","nn":"10","nuclearSpin":"0+","daughterIsotopes":"","isotopicComposition":"0.2","atomicMass":"17.9992"},{"nuclideSymbol":"O19","decayEnergy":"4.821","decayModes":"β-","zp":"","halfLife":"26.91s","nn":"11","nuclearSpin":"5\/2+","daughterIsotopes":"F19","isotopicComposition":"Syn","atomicMass":"19.0036"},{"nuclideSymbol":"O20","decayEnergy":"3.814","decayModes":"β-","zp":"","halfLife":"13.51s","nn":"12","nuclearSpin":"0+","daughterIsotopes":"F20","isotopicComposition":"Syn","atomicMass":"20.0041"},{"nuclideSymbol":"O21","decayEnergy":"8.109","decayModes":"β-","zp":"","halfLife":"3.42s","nn":"13","nuclearSpin":"1\/2+,\n3\/2+, 5\/2+","daughterIsotopes":"F21","isotopicComposition":"Syn","atomicMass":"21.0087"},{"nuclideSymbol":"O22","decayEnergy":"6.490","decayModes":"β-","zp":"","halfLife":"2.25s","nn":"14","nuclearSpin":"0+","daughterIsotopes":"F22","isotopicComposition":"Syn","atomicMass":"22.01"},{"nuclideSymbol":"O23","decayEnergy":"3.750","decayModes":"β- + N","zp":"31","halfLife":"82ms","nn":"15","nuclearSpin":"","daughterIsotopes":"F22","isotopicComposition":"Syn","atomicMass":"23.016"},{"nuclideSymbol":"","decayEnergy":"11.290","decayModes":"β-","zp":"","halfLife":"82ms","nn":"","nuclearSpin":"","daughterIsotopes":"F23","isotopicComposition":"","atomicMass":""},{"nuclideSymbol":"O24","decayEnergy":"7.600","decayModes":"β- + N","zp":"58","halfLife":"61ms","nn":"16","nuclearSpin":"0+","daughterIsotopes":"F23","isotopicComposition":"Syn","atomicMass":"24.02"},{"nuclideSymbol":"","decayEnergy":"11.400","decayModes":"β- + N","zp":"","halfLife":"61ms","nn":"","nuclearSpin":"","daughterIsotopes":"F24","isotopicComposition":"","atomicMass":""},{"nuclideSymbol":"O25","decayEnergy":"","decayModes":"","zp":"","halfLife":"","nn":"17","nuclearSpin":"","daughterIsotopes":"","isotopicComposition":"Syn","atomicMass":"25.029"},{"nuclideSymbol":"O26","decayEnergy":"","decayModes":"","zp":"","halfLife":"","nn":"18","nuclearSpin":"0+","daughterIsotopes":"","isotopicComposition":"Syn","atomicMass":"26.038"}],"elasticModulusYoungs":"","atomicMassFootnote":"g r","incompatibilities":"oxidizable materials","fillingOrbital":[{"2p":"4"}],"atomicRadius":"0.65","enthalpyOfVaporization":"3.41","heatOfVaporization":"3.4099","hardnessScaleBrinell":"","group":"16","atomicNumber":8,"relativeGasDensity":"","ionizationPotentialThird":"54.934","crossSection":"0.27","electroChemicalEquivalent":"","electronConfiguration":{"2p":"4","2s":"2","1s":"2"},"criticalTemperature":"-118.56","heatOfFusion":"0.22259"}