{"hardnessScaleMohs":"","opticalReflectivity":"","meltingPointFootnote":"","conductivityElectrical":"","standardCondition":"Synthetic","crystalStructure":"Unknown","coefficientOfLinealThermalExpansion":"","flammabilityClass":"","molarHeatCapacity":"","numberOfNeutrons":"184","series":"Noble Gas","vaporPressure":{"pa100k":"","pa100kFootnote":"","pa100Footnote":"","pa100":"","pa1Footnote":"","pa1":"","pa1kFootnote":"","pa1k":"","pa10kFootnote":"","pa10Footnote":"","pa10k":"","pa10":""},"casRegistryNumber":"54144-193","oxidationStates":"0, +4, +4","lineSpectra":[{"intensity":"0","airWavelength":"0","spectrum":"TBD"}],"numberOfElectrons":"118","magneticSusceptibility":"","atomicVolume":"","abundanceCrust":"","boilingPoint":"350±30","discoveryYear":"2003","electroNegativity":"","meltingPoint":"","elasticModulusBulk":"","boilingPointFootnote":"","ionizationPotentialSecond":"1450","conductivityThermal":"","discoveryLocation":"Russia","descr":"Man made element of which only a few atoms have ever been created.","elasticModulusRigidity":"","discoverer":"Unknown","ionicRadius":"","numberOfProtons":"118","abundanceSea":"","atomicMass":"294","molarVolume":"","ionizationPotentialFirst":"975±155","hardnessScaleVickers":"","enthalpyOfAtomization":"","density":"13.65","enthalpyOfFusion":"","opticalRefractiveIndex":"","qualitativeSolubility":"","name":"Oganesson","specificHeat":"","valenceElectronPotential":"","covalentRadius":"","electronWorkFunction":"","valenceElectrons":[{}],"atomicMassKnownAccurately":false,"period":"7","symbol":"Og","nuclidesAndIsotopes":[{"nuclideSymbol":"²⁹³Og","decayEnergy":"Unknown","decayModes":"𝛂","zp":"118","halfLife":"0.7 ms","nn":"176","nuclearSpin":"0+","daughterIsotopes":"²⁹⁰LV","naturalRangeVariation":"","isotopicComposition":"","atomicMass":"294.21392(71)#"},{"nuclideSymbol":"","decayEnergy":"","decayModes":"SF","zp":"","halfLife":"","nn":"","nuclearSpin":"","daughterIsotopes":"(Various)","naturalRangeVariation":"","isotopicComposition":"","atomicMass":""}],"elasticModulusYoungs":"","atomicMassFootnote":"a","incompatibilities":"","fillingOrbital":[{}],"atomicRadius":"152","enthalpyOfVaporization":"","heatOfVaporization":"19.4","hardnessScaleBrinell":"","group":"18","atomicNumber":118,"relativeGasDensity":"","ionizationPotentialThird":"","crossSection":"","electroChemicalEquivalent":"","electronConfiguration":{"3d":"10","5s":"","7p":"6","4s":"2","5f":"14","6p":"","3s":"2","4f":"14","5p":"","2s":"2","4p":"6","1s":"2","3p":"6","6d":"10","2p":"6","5d":"10","7s":"2","4d":"10","6s":""},"criticalTemperature":"","heatOfFusion":"23.5"}