{"hardnessScaleMohs":"7","opticalReflectivity":"","meltingPointFootnote":"","conductivityElectrical":"0.109","standardCondition":"Solid","crystalStructure":"Hexagonal","coefficientOfLinealThermalExpansion":"0.0000063","flammabilityClass":"","molarHeatCapacity":"24.7","numberOfNeutrons":"114","series":"Transition Metal","vaporPressure":{"pa100k":"4983","pa100kFootnote":"","pa100Footnote":"","pa100":"3478","pa1Footnote":"s","pa1":"2887","pa1kFootnote":"","pa1k":"3875","pa10kFootnote":"","pa10Footnote":"","pa10k":"4365","pa10":"3150"},"casRegistryNumber":"7440-04-2","oxidationStates":"2, 3, 4. 6, 8","lineSpectra":[{"intensity":"0","airWavelength":"0","spectrum":"TBD"}],"numberOfElectrons":"76","magneticSusceptibility":"+11","atomicVolume":"8.49","abundanceCrust":"1.5x10⁻³","boilingPoint":"5012","discoveryYear":"1804","electroNegativity":"2.2","meltingPoint":"3033","elasticModulusBulk":"","boilingPointFootnote":"","ionizationPotentialSecond":"","conductivityThermal":"0.876","discoveryLocation":"England","descr":"Fine black powder or hard blue-gray mass.","elasticModulusRigidity":"222","discoverer":"Smithson Tenant","ionicRadius":"0.63","numberOfProtons":"76","abundanceSea":"","atomicMass":"190.23","molarVolume":"8.41","ionizationPotentialFirst":"8.7","hardnessScaleVickers":"","enthalpyOfAtomization":"669","density":"22.59","enthalpyOfFusion":"29.3","opticalRefractiveIndex":"","qualitativeSolubility":"soluble in aqua regia","name":"Osmium","specificHeat":"0.130","atomicMassUncertainty":3,"valenceElectronPotential":"91.4","covalentRadius":"1.92","electronWorkFunction":"4.83","valenceElectrons":[{"5d":"6"},{"6s":"2"}],"atomicMassKnownAccurately":true,"period":"6","symbol":"Os","nuclidesAndIsotopes":[{"nuclideSymbol":"","decayEnergy":"","decayModes":"","zp":"","halfLife":"","nn":"","nuclearSpin":"","daughterIsotopes":"","isotopicComposition":"","atomicMass":""}],"elasticModulusYoungs":"","atomicMassFootnote":"g","incompatibilities":"","fillingOrbital":[{"5d":"6"}],"atomicRadius":"1.92","enthalpyOfVaporization":"627.6","heatOfVaporization":"746","hardnessScaleBrinell":"3920","group":"8","atomicNumber":76,"relativeGasDensity":"","ionizationPotentialThird":"","crossSection":"15.3","electroChemicalEquivalent":"1.774","electronConfiguration":{"3d":"10","5s":"2","4s":"2","3s":"2","4f":"14","5p":"6","2s":"2","4p":"6","1s":"2","3p":"6","2p":"6","5d":"6","4d":"10","6s":"2"},"criticalTemperature":"","heatOfFusion":"31.8"}