{"hardnessScaleMohs":"","opticalReflectivity":"","meltingPointFootnote":"(white)","conductivityElectrical":"0.00000000000000001","standardCondition":"Solid","crystalStructure":"Monoclinic","coefficientOfLinealThermalExpansion":"0.000125","flammabilityClass":"Flammable solid","molarHeatCapacity":"23.824","numberOfNeutrons":"16","series":"Non Metal","vaporPressure":{"pa10":"34","pa100kFootnote":"","pa100Footnote":"","pa100":"69","pa1Footnote":"s","pa1":"6","pa1kFootnote":"","pa1k":"115","pa10kFootnote":"","pa10Footnote":"s","pa10k":"180","pa100k":"276"},"casRegistryNumber":"7723-14-0","oxidationStates":"±3, 5, 4","lineSpectra":[{"intensity":"400","airWavelength":"4059.3120","spectrum":"P III"},{"intensity":"300","airWavelength":"4080.0840","spectrum":"P III"},{"intensity":"500","airWavelength":"4222.1950","spectrum":"P III"},{"intensity":"350","airWavelength":"4246.7200","spectrum":"P III"},{"intensity":"80","airWavelength":"4420.7100","spectrum":"P II"},{"intensity":"250","airWavelength":"4479.7760","spectrum":"P III"},{"intensity":"250","airWavelength":"4540.2880","spectrum":"P IV"},{"intensity":"250","airWavelength":"4541.1120","spectrum":"P IV"},{"intensity":"110","airWavelength":"4588.0400","spectrum":"P II"},{"intensity":"110","airWavelength":"4589.8600","spectrum":"P II"},{"intensity":"130","airWavelength":"4602.0800","spectrum":"P II"},{"intensity":"110","airWavelength":"4943.5300","spectrum":"P II"},{"intensity":"80","airWavelength":"5296.1300","spectrum":"P II"},{"intensity":"80","airWavelength":"5425.9100","spectrum":"P II"},{"intensity":"80","airWavelength":"5450.7400","spectrum":"P II"},{"intensity":"110","airWavelength":"6024.1800","spectrum":"P II"},{"intensity":"80","airWavelength":"6034.0400","spectrum":"P II"},{"intensity":"110","airWavelength":"6043.1200","spectrum":"P II"},{"intensity":"150","airWavelength":"6083.4090","spectrum":"P III"},{"intensity":"70","airWavelength":"6087.8200","spectrum":"P II"},{"intensity":"70","airWavelength":"6165.5900","spectrum":"P II"},{"intensity":"60","airWavelength":"6199.02400","spectrum":"P I"},{"intensity":"130","airWavelength":"6459.9900","spectrum":"P II"},{"intensity":"130","airWavelength":"6503.4600","spectrum":"P II"},{"intensity":"130","airWavelength":"6507.9700","spectrum":"P II"},{"intensity":"150","airWavelength":"6992.6000","spectrum":"P III"}],"numberOfElectrons":"15","magneticSusceptibility":"-26.66","atomicVolume":"17","abundanceCrust":"1.05x10³","boilingPoint":"280.5","discoveryYear":"1669","electroNegativity":"2.19","meltingPoint":"44.15","elasticModulusBulk":"11","boilingPointFootnote":"(white)","ionizationPotentialSecond":"19.725","conductivityThermal":"0.00235","discoveryLocation":"Germany","descr":"Soft white waxy solid, brownish-red powder or black solid.","elasticModulusRigidity":"","discoverer":"Hennig Brand","ionicRadius":"0.38","numberOfProtons":"15","abundanceSea":"6x10⁻²","atomicMass":"30.973761","ionizationPotentialFirst":"10.486","molarVolume":"17","hardnessScaleVickers":"","enthalpyOfAtomization":"314.6","density":"1.82","enthalpyOfFusion":"0.63","opticalRefractiveIndex":"1.001212","qualitativeSolubility":"insoluble in H₂0; soluble in benzene, ethanol, chloroform; soluble in CS₂","name":"Phosphorus","specificHeat":"0.769","atomicMassUncertainty":2,"valenceElectronPotential":"190","covalentRadius":"1.06","electronWorkFunction":"","valenceElectrons":[{"3s":"2"},{"3p":"3"}],"atomicMassKnownAccurately":true,"period":"3","symbol":"P","nuclidesAndIsotopes":[{"nuclideSymbol":"P24","decayEnergy":"","decayModes":"","zp":"","halfLife":"","nn":"9","nuclearSpin":"","daughterIsotopes":"","isotopicComposition":"Syn","atomicMass":"24.034"},{"nuclideSymbol":"P25","decayEnergy":"","decayModes":"","zp":"","halfLife":"","nn":"10","nuclearSpin":"","daughterIsotopes":"","isotopicComposition":"Syn","atomicMass":"25.02"},{"nuclideSymbol":"P26","decayEnergy":"12.600","decayModes":"ξ + P","zp":"2","halfLife":"20ms","nn":"11","nuclearSpin":"3+","daughterIsotopes":"Al25","isotopicComposition":"Syn","atomicMass":"26.012"},{"nuclideSymbol":"","decayEnergy":"18.120","decayModes":"ξ","zp":"","halfLife":"20ms","nn":"","nuclearSpin":"","daughterIsotopes":"Si26","isotopicComposition":"","atomicMass":""},{"nuclideSymbol":"P27","decayEnergy":"4.170","decayModes":"ξ + P","zp":"6","halfLife":"260ms","nn":"12","nuclearSpin":"1\/2+","daughterIsotopes":"Al26","isotopicComposition":"Syn","atomicMass":"26.9992"},{"nuclideSymbol":"","decayEnergy":"11.630","decayModes":"ξ","zp":"","halfLife":"260ms","nn":"","nuclearSpin":"","daughterIsotopes":"Si27","isotopicComposition":"","atomicMass":""},{"nuclideSymbol":"P28","decayEnergy":"14.332","decayModes":"ξ","zp":"","halfLife":"270.3ms","nn":"13","nuclearSpin":"3+","daughterIsotopes":"Si28","isotopicComposition":"Syn","atomicMass":"27.9923"},{"nuclideSymbol":"P29","decayEnergy":"4.943","decayModes":"ξ","zp":"","halfLife":"4.140s","nn":"14","nuclearSpin":"1\/2+","daughterIsotopes":"Si29","isotopicComposition":"Syn","atomicMass":"28.9818"},{"nuclideSymbol":"P30","decayEnergy":"4.232","decayModes":"ξ","zp":"","halfLife":"2.498m","nn":"15","nuclearSpin":"1+","daughterIsotopes":"Si30","isotopicComposition":"Syn","atomicMass":"29.9783"},{"nuclideSymbol":"P31","decayEnergy":"","decayModes":"","zp":"","halfLife":"Stable","nn":"16","nuclearSpin":"1\/2+","daughterIsotopes":"","isotopicComposition":"100","atomicMass":"30.9738"},{"nuclideSymbol":"P32","decayEnergy":"1.711","decayModes":"β-","zp":"","halfLife":"14.262d","nn":"17","nuclearSpin":"1+","daughterIsotopes":"S32","isotopicComposition":"Syn","atomicMass":"31.9739"},{"nuclideSymbol":"P33","decayEnergy":"0.249","decayModes":"β-","zp":"","halfLife":"25.34d","nn":"18","nuclearSpin":"1\/2+","daughterIsotopes":"S33","isotopicComposition":"Syn","atomicMass":"32.9717"},{"nuclideSymbol":"P34","decayEnergy":"5.374","decayModes":"β-","zp":"","halfLife":"12.43s","nn":"19","nuclearSpin":"1+","daughterIsotopes":"S34","isotopicComposition":"Syn","atomicMass":"33.9736"},{"nuclideSymbol":"P35","decayEnergy":"3.989","decayModes":"β-","zp":"","halfLife":"47.3s","nn":"20","nuclearSpin":"1\/2+","daughterIsotopes":"S35","isotopicComposition":"Syn","atomicMass":"34.9733"},{"nuclideSymbol":"P36","decayEnergy":"10.413","decayModes":"β-","zp":"","halfLife":"5.6s","nn":"21","nuclearSpin":"","daughterIsotopes":"S36","isotopicComposition":"Syn","atomicMass":"35.9783"},{"nuclideSymbol":"P37","decayEnergy":"7.900","decayModes":"β-","zp":"","halfLife":"2.31s","nn":"22","nuclearSpin":"","daughterIsotopes":"S37","isotopicComposition":"Syn","atomicMass":"36.9796"},{"nuclideSymbol":"P38","decayEnergy":"4.360","decayModes":"β- + N","zp":"<10","halfLife":"0.64s","nn":"23","nuclearSpin":"","daughterIsotopes":"S37","isotopicComposition":"Syn","atomicMass":"37.984"},{"nuclideSymbol":"","decayEnergy":"12.390","decayModes":"β-","zp":"","halfLife":"0.64s","nn":"","nuclearSpin":"","daughterIsotopes":"S38","isotopicComposition":"","atomicMass":""},{"nuclideSymbol":"P39","decayEnergy":"6.140","decayModes":"β- + N","zp":"41","halfLife":"0.16s","nn":"24","nuclearSpin":"","daughterIsotopes":"S38","isotopicComposition":"Syn","atomicMass":"38.986"},{"nuclideSymbol":"","decayEnergy":"10.510","decayModes":"β-","zp":"","halfLife":"0.16s","nn":"","nuclearSpin":"","daughterIsotopes":"S39","isotopicComposition":"","atomicMass":""},{"nuclideSymbol":"P40","decayEnergy":"6.750","decayModes":"β- + N","zp":"30","halfLife":"260ms","nn":"25","nuclearSpin":"","daughterIsotopes":"S39","isotopicComposition":"Syn","atomicMass":"39.991"},{"nuclideSymbol":"","decayEnergy":"14.500","decayModes":"β-","zp":"","halfLife":"260ms","nn":"","nuclearSpin":"","daughterIsotopes":"S40","isotopicComposition":"","atomicMass":""},{"nuclideSymbol":"P41","decayEnergy":"9.900","decayModes":"β- + N","zp":"30","halfLife":"120ms","nn":"26","nuclearSpin":"","daughterIsotopes":"S40","isotopicComposition":"Syn","atomicMass":"40.995"},{"nuclideSymbol":"","decayEnergy":"13.800","decayModes":"β-","zp":"","halfLife":"120ms","nn":"","nuclearSpin":"","daughterIsotopes":"S41","isotopicComposition":"","atomicMass":""},{"nuclideSymbol":"P42","decayEnergy":"10.600","decayModes":"β- + N","zp":"50","halfLife":"110ms","nn":"27","nuclearSpin":"","daughterIsotopes":"S41","isotopicComposition":"Syn","atomicMass":"42"},{"nuclideSymbol":"","decayEnergy":"17.300","decayModes":"β-","zp":"","halfLife":"110ms","nn":"","nuclearSpin":"","daughterIsotopes":"S42","isotopicComposition":"","atomicMass":""},{"nuclideSymbol":"P43","decayEnergy":"15.600","decayModes":"β-","zp":"","halfLife":"33ms","nn":"28","nuclearSpin":"","daughterIsotopes":"S43","isotopicComposition":"Syn","atomicMass":"43.003"},{"nuclideSymbol":"","decayEnergy":"12.300","decayModes":"β- + N","zp":"","halfLife":"33ms","nn":"","nuclearSpin":"","daughterIsotopes":"S42","isotopicComposition":"","atomicMass":""},{"nuclideSymbol":"P44","decayEnergy":"","decayModes":"","zp":"","halfLife":">200ns","nn":"29","nuclearSpin":"","daughterIsotopes":"","isotopicComposition":"Syn","atomicMass":"44.01"},{"nuclideSymbol":"P45","decayEnergy":"","decayModes":"","zp":"","halfLife":">200ns","nn":"30","nuclearSpin":"","daughterIsotopes":"","isotopicComposition":"Syn","atomicMass":"45.015"},{"nuclideSymbol":"P46","decayEnergy":"","decayModes":"","zp":"","halfLife":">200ns","nn":"31","nuclearSpin":"","daughterIsotopes":"","isotopicComposition":"Syn","atomicMass":"46.024"}],"elasticModulusYoungs":"","atomicMassFootnote":"","incompatibilities":"Air, oxidizers (including elemental sulfer and strong caustics), halogens","fillingOrbital":[{"3p":"3"}],"atomicRadius":"1.23","enthalpyOfVaporization":"12.43","heatOfVaporization":"12.129","hardnessScaleBrinell":"","group":"15","atomicNumber":15,"relativeGasDensity":"","ionizationPotentialThird":"30.18","crossSection":"0.19","electroChemicalEquivalent":"0.23113","electronConfiguration":{"3p":"3","2p":"6","3s":"2","2s":"2","1s":"2"},"criticalTemperature":"721","heatOfFusion":"0.657"}