{"hardnessScaleMohs":"","opticalReflectivity":"","meltingPointFootnote":"","conductivityElectrical":"0.0529","standardCondition":"Solid","crystalStructure":"Cubic","coefficientOfLinealThermalExpansion":"0.0000112","flammabilityClass":"","molarHeatCapacity":"","numberOfNeutrons":"122","series":"Actinide","vaporPressure":{"pa100k":"","pa100kFootnote":"","pa100Footnote":"","pa100":"","pa1Footnote":"","pa1":"","pa1kFootnote":"","pa1k":"","pa10kFootnote":"","pa10Footnote":"","pa10k":"","pa10":""},"casRegistryNumber":"7440-13-3","oxidationStates":"5, 4","lineSpectra":[{"intensity":"0","airWavelength":"0","spectrum":"TBD"}],"numberOfElectrons":"91","magneticSusceptibility":"+277","atomicVolume":"15","abundanceCrust":"1.4x10⁻⁶","boilingPoint":"4027","discoveryYear":"1917","electroNegativity":"1.5","meltingPoint":"1572","elasticModulusBulk":"","boilingPointFootnote":"","ionizationPotentialSecond":"","conductivityThermal":"0.47","discoveryLocation":"England\/France","descr":"Radioactive rare earth metal.","elasticModulusRigidity":"","discoverer":"Fredrich Soddy, John Cranston, Otto Hahn, Lise Meitner","ionicRadius":"0.78","numberOfProtons":"91","abundanceSea":"5x10⁻¹¹","atomicMass":"231.03588","molarVolume":"15.03","ionizationPotentialFirst":"5.89","hardnessScaleVickers":"","enthalpyOfAtomization":"","density":"15.4","enthalpyOfFusion":"12.34","opticalRefractiveIndex":"","qualitativeSolubility":"","name":"Protactinium","specificHeat":"","atomicMassUncertainty":2,"valenceElectronPotential":"92","covalentRadius":"","electronWorkFunction":"","valenceElectrons":[{"5f":"2"},{"6d":"1"},{"7s":"2"}],"atomicMassKnownAccurately":true,"period":"7","symbol":"Pa","nuclidesAndIsotopes":[{"nuclideSymbol":"","decayEnergy":"","decayModes":"","zp":"","halfLife":"","nn":"","nuclearSpin":"","daughterIsotopes":"","isotopicComposition":"","atomicMass":""}],"elasticModulusYoungs":"","atomicMassFootnote":"","incompatibilities":"","fillingOrbital":[{"5f":"2"}],"atomicRadius":"","enthalpyOfVaporization":"","heatOfVaporization":"","hardnessScaleBrinell":"","group":"","atomicNumber":91,"relativeGasDensity":"","ionizationPotentialThird":"","crossSection":"200","electroChemicalEquivalent":"1.724","electronConfiguration":{"3d":"10","5s":"2","4s":"2","5f":"2","6p":"6","3s":"2","4f":"14","5p":"6","2s":"2","4p":"6","1s":"2","3p":"6","6d":"1","2p":"6","5d":"10","7s":"2","4d":"10","6s":"2"},"criticalTemperature":"","heatOfFusion":"12.3"}