{"hardnessScaleMohs":"1.5","opticalReflectivity":"","meltingPointFootnote":"","conductivityElectrical":"0.0481","standardCondition":"Solid","crystalStructure":"CubicFace","coefficientOfLinealThermalExpansion":"0.0000283","flammabilityClass":"Non-combustible solid (except as dust)","molarHeatCapacity":"26.650","numberOfNeutrons":"125","series":"Metal","vaporPressure":{"pa100k":"1754","pa100kFootnote":"","pa100Footnote":"","pa100":"956","pa1Footnote":"","pa1":"705","pa1kFootnote":"","pa1k":"1139","pa10kFootnote":"","pa10Footnote":"","pa10k":"1387","pa10":"815"},"casRegistryNumber":"7439-92-1","oxidationStates":"4, 2","lineSpectra":[{"intensity":"0","airWavelength":"0","spectrum":"TBD"}],"numberOfElectrons":"82","magneticSusceptibility":"-23","atomicVolume":"18.17","abundanceCrust":"1.4x10¹","boilingPoint":"1749","discoveryYear":"Known to the ancients","electroNegativity":"2.33","meltingPoint":"327.46","elasticModulusBulk":"46","boilingPointFootnote":"","ionizationPotentialSecond":"15.028","conductivityThermal":"0.353","discoveryLocation":"?","descr":"Soft bluish-white metal.","elasticModulusRigidity":"5.6","discoverer":"Known to the ancients","ionicRadius":"1.19","numberOfProtons":"82","abundanceSea":"3x10⁻⁵","atomicMass":"207.2","molarVolume":"18.27","ionizationPotentialFirst":"7.416","hardnessScaleVickers":"","enthalpyOfAtomization":"194.6","density":"11.3","enthalpyOfFusion":"4.77","opticalRefractiveIndex":"","qualitativeSolubility":"soluble in concentrated acid","name":"Lead","specificHeat":"0.129","atomicMassUncertainty":1,"valenceElectronPotential":"24.2","covalentRadius":"1.47","electronWorkFunction":"4.25","valenceElectrons":[{"6s":"2"},{"6p":"2"}],"atomicMassKnownAccurately":true,"period":"6","symbol":"Pb","nuclidesAndIsotopes":[{"nuclideSymbol":"","decayEnergy":"","decayModes":"","zp":"","halfLife":"","nn":"","nuclearSpin":"","daughterIsotopes":"","isotopicComposition":"","atomicMass":""}],"elasticModulusYoungs":"16","atomicMassFootnote":"g r","incompatibilities":"Strong oxidizers, hydrogen peroxide, acids","fillingOrbital":[{"1s":"1"}],"atomicRadius":"1.81","enthalpyOfVaporization":"179.4","heatOfVaporization":"177.7","hardnessScaleBrinell":"38.3","group":"14","atomicNumber":82,"relativeGasDensity":"","ionizationPotentialThird":"31.943","crossSection":"180","electroChemicalEquivalent":"3.865","electronConfiguration":{"3d":"10","5s":"2","4s":"2","6p":"2","3s":"2","4f":"14","5p":"6","2s":"2","4p":"6","1s":"2","3p":"6","2p":"6","5d":"10","4d":"10","6s":"2"},"criticalTemperature":"","heatOfFusion":"4.799"}