{"hardnessScaleMohs":"4.75","opticalReflectivity":"72","meltingPointFootnote":"","conductivityElectrical":"0.095","standardCondition":"Solid","crystalStructure":"CubicFace","coefficientOfLinealThermalExpansion":"0.00001167","flammabilityClass":"Non-combustible solid (except as dust)","molarHeatCapacity":"25.98","numberOfNeutrons":"60","series":"Transition Metal","vaporPressure":{"pa100k":"2961","pa100kFootnote":"","pa100Footnote":"","pa100":"1844","pa1Footnote":"s","pa1":"1448","pa1kFootnote":"","pa1k":"2122","pa10kFootnote":"","pa10Footnote":"","pa10k":"2480","pa10":"1624"},"casRegistryNumber":"7440-05-03","oxidationStates":"2, 4","lineSpectra":[{"intensity":"0","airWavelength":"0","spectrum":"TBD"}],"numberOfElectrons":"46","magneticSusceptibility":"+540","atomicVolume":"8.9","abundanceCrust":"1.5x10⁻²","boilingPoint":"2963","discoveryYear":"1803","electroNegativity":"2.2","meltingPoint":"1554.9","elasticModulusBulk":"180","boilingPointFootnote":"","ionizationPotentialSecond":"19.63","conductivityThermal":"0.718","discoveryLocation":"England","descr":"Soft silver-white metal that does not tarnish in air. It is attacked by concentrated, hot nitric acid and boiling sulfuric acid.","elasticModulusRigidity":"44","discoverer":"William Wollaston","ionicRadius":"0.86","numberOfProtons":"46","abundanceSea":"","atomicMass":"106.42","molarVolume":"","ionizationPotentialFirst":"8.34","hardnessScaleVickers":"461","enthalpyOfAtomization":"393.3","density":"12.0","enthalpyOfFusion":"16.74","opticalRefractiveIndex":"","qualitativeSolubility":"soluble in aqua regia","name":"Palladium","specificHeat":"0.246","atomicMassUncertainty":1,"valenceElectronPotential":"","covalentRadius":"1.28","electronWorkFunction":"5.12","valenceElectrons":[{"4d":"10"}],"atomicMassKnownAccurately":true,"period":"5","symbol":"Pd","nuclidesAndIsotopes":[{"nuclideSymbol":"","decayEnergy":"","decayModes":"","zp":"","halfLife":"","nn":"","nuclearSpin":"","daughterIsotopes":"","isotopicComposition":"","atomicMass":""}],"elasticModulusYoungs":"121","atomicMassFootnote":"g","incompatibilities":"8.85","fillingOrbital":[{"4d":"10"}],"atomicRadius":"1.79","enthalpyOfVaporization":"376.6","heatOfVaporization":"357","hardnessScaleBrinell":"37.3","group":"0","atomicNumber":46,"relativeGasDensity":"","ionizationPotentialThird":"32.93","crossSection":"6","electroChemicalEquivalent":"1.985","electronConfiguration":{"4p":"6","3p":"6","4s":"2","2p":"6","3s":"2","2s":"2","3d":"10","1s":"2","4d":"10"},"criticalTemperature":"","heatOfFusion":"17.6"}