{"opticalReflectivity":"","meltingPointFootnote":"","conductivityElectrical":"","standardCondition":"Synthetic","crystalStructure":"Hexagonal","coefficientOfLinealThermalExpansion":"","flammabilityClass":"","molarHeatCapacity":"","numberOfNeutrons":"84","series":"Lanthanide","vaporPressure":{"pa100k":"","pa100kFootnote":"","pa100Footnote":"","pa100":"","pa1Footnote":"","pa1":"","pa1kFootnote":"","pa1k":"","pa10kFootnote":"","pa10Footnote":"","pa10k":"","pa10":""},"casRegistryNumber":"7440-12-2","oxidationStates":"3","lineSpectra":[{"intensity":"0","airWavelength":"0","spectrum":"TBD"}],"numberOfElectrons":"61","magneticSusceptibility":"","atomicVolume":"22.39","abundanceCrust":"","boilingPoint":"3000","discoveryYear":"1945","electroNegativity":"1.13","meltingPoint":"1042","elasticModulusBulk":"33","boilingPointFootnote":"","ionizationPotentialSecond":"10.903","conductivityThermal":"0.179","discoveryLocation":"United States","descr":"Radioactive rare earth metal.","elasticModulusRigidity":"18","discoverer":"J.A. Marinsky, L.E. Glendenin, C.D. Coryell","ionicRadius":"0.979","numberOfProtons":"61","abundanceSea":"","atomicMass":"145.9127","molarVolume":"19.95","ionizationPotentialFirst":"5.554","enthalpyOfFusion":"7.5","hardnessScale":"","density":"7.26","enthalpyOfAtomization":"310","opticalRefractiveIndex":"","qualitativeSolubility":"","name":"Promethium","specificHeat":"0.19","valenceElectronPotential":"44.1","covalentRadius":"1.63","electronWorkFunction":"","valenceElectrons":[{"4f":"5"},{"6s":"2"}],"atomicMassKnownAccurately":false,"period":"6","symbol":"Pm","nuclidesAndIsotopes":[{"nuclideSymbol":"","decayEnergy":"","decayModes":"","zp":"","halfLife":"","nn":"","nuclearSpin":"","daughterIsotopes":"","isotopicComposition":"","atomicMass":""}],"elasticModulusYoungs":"46","atomicMassFootnote":"a","incompatibilities":"","fillingOrbital":[{"4f":"5"}],"atomicRadius":"2.62","enthalpyOfVaporization":"","heatOfVaporization":"","group":"","atomicNumber":61,"relativeGasDensity":"","ionizationPotentialThird":"22.283","crossSection":"","electroChemicalEquivalent":"1.8022","electronConfiguration":{"3d":"10","5s":"2","4s":"2","3s":"2","4f":"5","5p":"6","2s":"2","4p":"6","1s":"2","3p":"6","2p":"6","4d":"10","6s":"2"},"criticalTemperature":"","heatOfFusion":"12.6"}