{"opticalReflectivity":"","meltingPointFootnote":"","conductivityElectrical":"0.0219","standardCondition":"Solid","crystalStructure":"Monoclinic","coefficientOfLinealThermalExpansion":"0.0000235","flammabilityClass":"","molarHeatCapacity":"","numberOfNeutrons":"125","series":"Metal","vaporPressure":{"pa100k":"963.3","pa100kFootnote":"","pa100Footnote":"","pa100":"","pa1Footnote":"","pa1":"","pa1kFootnote":"e","pa1k":"573","pa10kFootnote":"","pa10Footnote":"","pa10k":"730.2","pa10":""},"casRegistryNumber":"7440-08-06","oxidationStates":"4, 2","lineSpectra":[{"intensity":"0","airWavelength":"0","spectrum":"TBD"}],"numberOfElectrons":"84","magneticSusceptibility":"","atomicVolume":"22.23","abundanceCrust":"2x10⁻¹⁰","boilingPoint":"962","discoveryYear":"1898","electroNegativity":"2","meltingPoint":"254","elasticModulusBulk":"","boilingPointFootnote":"","ionizationPotentialSecond":"","conductivityThermal":"0.2","discoveryLocation":"France","descr":"Radioactive metal.","elasticModulusRigidity":"","discoverer":"Pierre and Marie Curie","ionicRadius":"2.3","numberOfProtons":"84","abundanceSea":"1.5x10⁻¹⁴","atomicMass":"208.9824","molarVolume":"22.73","ionizationPotentialFirst":"8.42","enthalpyOfFusion":"","hardnessScale":"","density":"9.20","enthalpyOfAtomization":"134","opticalRefractiveIndex":"","qualitativeSolubility":"","name":"Polonium","specificHeat":"","valenceElectronPotential":"-12.5","covalentRadius":"1.46","electronWorkFunction":"","valenceElectrons":[{"6s":"2"},{"6p":"4"}],"atomicMassKnownAccurately":false,"period":"6","symbol":"Po","nuclidesAndIsotopes":[{"nuclideSymbol":"","decayEnergy":"","decayModes":"","zp":"","halfLife":"","nn":"","nuclearSpin":"","daughterIsotopes":"","isotopicComposition":"","atomicMass":""}],"elasticModulusYoungs":"","atomicMassFootnote":"a","incompatibilities":"","fillingOrbital":[{"6p":"4"}],"atomicRadius":"1.53","enthalpyOfVaporization":"60.3","heatOfVaporization":"","group":"16","atomicNumber":84,"relativeGasDensity":"","ionizationPotentialThird":"","crossSection":"","electroChemicalEquivalent":"3.8986","electronConfiguration":{"3d":"10","5s":"2","4s":"2","6p":"4","3s":"2","4f":"14","5p":"6","2s":"2","4p":"6","1s":"2","3p":"6","2p":"6","5d":"10","4d":"10","6s":"2"},"criticalTemperature":"","heatOfFusion":"60.1"}