{"hardnessScaleMohs":"","opticalReflectivity":"","meltingPointFootnote":"","conductivityElectrical":"0.0148","standardCondition":"Solid","crystalStructure":"Hexagonal","coefficientOfLinealThermalExpansion":"0.0000065","flammabilityClass":"","molarHeatCapacity":"27.20","numberOfNeutrons":"82","series":"Lanthanide","vaporPressure":{"pa100k":"3506","pa100kFootnote":"i","pa100Footnote":"i","pa100":"1954","pa1Footnote":"","pa1":"1497.7","pa1kFootnote":"i","pa1k":"2298","pa10kFootnote":"i","pa10Footnote":"","pa10k":"2781","pa10":"1699.4"},"casRegistryNumber":"7440-10-0","oxidationStates":"3, 4","lineSpectra":[{"intensity":"0","airWavelength":"0","spectrum":"TBD"}],"numberOfElectrons":"59","magneticSusceptibility":"+5530","atomicVolume":"20.8","abundanceCrust":"9.2","boilingPoint":"3520","discoveryYear":"1885","electroNegativity":"1.13","meltingPoint":"931","elasticModulusBulk":"29","ionizationPotentialSecond":"10.551","boilingPointFootnote":"","conductivityThermal":"0.125","discoveryLocation":"Austria","descr":"Rare earth metal.","discoverer":"C.F. Aver von Welsbach","ionicRadius":"1.013","numberOfProtons":"59","opticalRefractiveIndex":"","abundanceSea":"6.4x10⁻⁷","atomicMass":"140.90765","molarVolume":"20.8","ionizationPotentialFirst":"5.46","hardnessScaleVickers":"400","enthalpyOfAtomization":"368","density":"6.77","enthalpyOfFusion":"6.89","qualitativeSolubility":"","specificHeat":"0.193","name":"Praseodymium","valenceElectronPotential":"42.64","atomicMassUncertainty":2,"covalentRadius":"1.65","electronWorkFunction":"2.7","valenceElectrons":[{"4f":"3"},{"6s":"2"}],"atomicMassKnownAccurately":true,"period":"6","symbol":"Pr","nuclidesAndIsotopes":[{"nuclideSymbol":"","decayEnergy":"","decayModes":"","zp":"","halfLife":"","nn":"","nuclearSpin":"","daughterIsotopes":"","isotopicComposition":"","atomicMass":""}],"elasticModulusYoungs":"37","elasticModulusRIgidity":"15","atomicMassFootnote":"","incompatibilities":"","fillingOrbital":[{"4f":"3"}],"atomicRadius":"2.67","enthalpyOfVaporization":"296.8","heatOfVaporization":"296.8","hardnessScaleBrinell":"481","group":"","atomicNumber":59,"relativeGasDensity":"","ionizationPotentialThird":"21.62","crossSection":"3.9","electroChemicalEquivalent":"1.7524","electronConfiguration":{"3d":"10","5s":"2","4s":"2","3s":"2","4f":"3","5p":"6","2s":"2","4p":"6","1s":"2","3p":"6","2p":"6","4d":"10","6s":"2"},"criticalTemperature":"","heatOfFusion":"6.89"}