{"hardnessScaleMohs":"3.5","opticalReflectivity":"73","meltingPointFootnote":"","conductivityElectrical":"0.0966","standardCondition":"Solid","crystalStructure":"CubicFace","coefficientOfLinealThermalExpansion":"0.0000095","flammabilityClass":"Non-combustible solid (except as dust)","molarHeatCapacity":"25.86","numberOfNeutrons":"117","series":"Transition Metal","vaporPressure":{"pa100k":"3821","pa100kFootnote":"","pa100Footnote":"","pa100":"2542","pa1Footnote":"","pa1":"2057","pa1kFootnote":"","pa1k":"2870","pa10kFootnote":"","pa10Footnote":"e","pa10k":"3283","pa10":"2277"},"casRegistryNumber":"7440-06-04","oxidationStates":"2, 4","lineSpectra":[{"intensity":"0","airWavelength":"0","spectrum":"TBD"}],"numberOfElectrons":"78","magneticSusceptibility":"+193","atomicVolume":"9.1","abundanceCrust":"5x10⁻³","boilingPoint":"3825","discoveryYear":"1735","electroNegativity":"2.28","meltingPoint":"1768.4","elasticModulusBulk":"230","boilingPointFootnote":"","ionizationPotentialSecond":"18.563","conductivityThermal":"0.716","discoveryLocation":"Italy","descr":"Silver white transition metal.","elasticModulusRigidity":"61","discoverer":"Julius Scaliger","ionicRadius":"0.625","numberOfProtons":"78","abundanceSea":"","atomicMass":"195.078","molarVolume":"9.09","ionizationPotentialFirst":"9","hardnessScaleVickers":"549","enthalpyOfAtomization":"565","density":"21.5","enthalpyOfFusion":"19.7","opticalRefractiveIndex":"","qualitativeSolubility":"insoluble in acid; soluble in aqua regia","name":"Platinum","specificHeat":"0.133","atomicMassUncertainty":2,"valenceElectronPotential":"92.2","covalentRadius":"1.3","electronWorkFunction":"5.65","valenceElectrons":[{"5d":"9"},{"6s":"1"}],"atomicMassKnownAccurately":true,"period":"6","symbol":"Pt","nuclidesAndIsotopes":[{"nuclideSymbol":"","decayEnergy":"","decayModes":"","zp":"","halfLife":"","nn":"","nuclearSpin":"","daughterIsotopes":"","isotopicComposition":"","atomicMass":""}],"elasticModulusYoungs":"168","atomicMassFootnote":"","incompatibilities":"Aluminum, acetone, arsenic, ethane, hydrazine, hydrogen peroxide, lithium, phosphorus, selenium, tellurium, various fluorides","fillingOrbital":[{"5d":"9"}],"atomicRadius":"1.83","enthalpyOfVaporization":"510.5","heatOfVaporization":"510","hardnessScaleBrinell":"392","group":"10","atomicNumber":78,"relativeGasDensity":"","ionizationPotentialThird":"","crossSection":"9","electroChemicalEquivalent":"1.8197","electronConfiguration":{"3d":"10","5s":"2","4s":"2","3s":"2","4f":"14","5p":"6","2s":"2","4p":"6","1s":"2","3p":"6","2p":"6","5d":"9","4d":"10","6s":"1"},"criticalTemperature":"","heatOfFusion":"19.6"}