{"hardnessScaleMohs":"","opticalReflectivity":"","meltingPointFootnote":"","conductivityElectrical":"0.00666","standardCondition":"Synthetic","crystalStructure":"Hexagonal","coefficientOfLinealThermalExpansion":"0.0000423","flammabilityClass":"","molarHeatCapacity":"","numberOfNeutrons":"150","series":"Actinide","vaporPressure":{"pa100k":"3226","pa100kFootnote":"","pa100Footnote":"","pa100":"1925","pa1Footnote":"","pa1":"1483","pa1kFootnote":"","pa1k":"2238","pa10kFootnote":"","pa10Footnote":"","pa10k":"2653","pa10":"1680"},"casRegistryNumber":"7440-07-05","oxidationStates":"6, 5, 4, 3","lineSpectra":[{"intensity":"0","airWavelength":"0","spectrum":"TBD"}],"numberOfElectrons":"94","magneticSusceptibility":"+525","atomicVolume":"12.32","abundanceCrust":"","boilingPoint":"3228","discoveryYear":"1940","electroNegativity":"1.8","meltingPoint":"640","elasticModulusBulk":"","boilingPointFootnote":"","ionizationPotentialSecond":"","conductivityThermal":"0.0674","discoveryLocation":"United States","descr":"Man made radioactive metal.","elasticModulusRigidity":"43","discoverer":"G.T.Seaborg, J.W.Kennedy, E.M.McMillan, A.C.Wohl","ionicRadius":"0.887","numberOfProtons":"94","abundanceSea":"","atomicMass":"244.0642","molarVolume":"12.32","ionizationPotentialFirst":"6.06","hardnessScaleVickers":"","enthalpyOfAtomization":"360","density":"19.7","enthalpyOfFusion":"2.82","opticalRefractiveIndex":"","qualitativeSolubility":"","name":"Plutonium","specificHeat":"","valenceElectronPotential":"64.9","covalentRadius":"","electronWorkFunction":"","valenceElectrons":[{"5f":"6"},{"7s":"2"}],"atomicMassKnownAccurately":false,"period":"7","symbol":"Pu","nuclidesAndIsotopes":[{"nuclideSymbol":"","decayEnergy":"","decayModes":"","zp":"","halfLife":"","nn":"","nuclearSpin":"","daughterIsotopes":"","isotopicComposition":"","atomicMass":""}],"elasticModulusYoungs":"96","atomicMassFootnote":"a","incompatibilities":"","fillingOrbital":[{"5f":"6"}],"atomicRadius":"","enthalpyOfVaporization":"344","heatOfVaporization":"344","hardnessScaleBrinell":"","group":"","atomicNumber":94,"relativeGasDensity":"","ionizationPotentialThird":"","crossSection":"1.8","electroChemicalEquivalent":"2.2765","electronConfiguration":{"3d":"10","5s":"2","4s":"2","5f":"6","6p":"6","3s":"2","4f":"14","5p":"6","2s":"2","4p":"6","1s":"2","3p":"6","2p":"6","5d":"10","7s":"2","4d":"10","6s":"2"},"criticalTemperature":"","heatOfFusion":"2.84"}