{"elasticModulus":"","opticalReflectivity":"","meltingPointFootnote":"","conductivityElectrical":"","standardCondition":"Solid","crystalStructure":"CubicBody","coefficientOfLinealThermalExpansion":"","flammabilityClass":"","molarHeatCapacity":"","numberOfNeutrons":"138","series":"Alkali Earth Metal","vaporPressure":{"pa100k":"1526","pa100kFootnote":"","pa100Footnote":"","pa100":"764","pa1Footnote":"s","pa1":"546","pa1kFootnote":"","pa1k":"936","pa10kFootnote":"","pa10Footnote":"s","pa10k":"1173","pa10":"633"},"casRegistryNumber":"7440-14-4","oxidationStates":"2","lineSpectra":[{"intensity":"0","airWavelength":"0","spectrum":"TBD"}],"numberOfElectrons":"88","magneticSusceptibility":"","atomicVolume":"45.2","abundanceCrust":"9x10⁻⁷","boilingPoint":"","discoveryYear":"1898","electroNegativity":"0.9","meltingPoint":"700","boilingPointFootnote":"","ionizationPotentialSecond":"10.148","conductivityThermal":"0.186","discoveryLocation":"France","descr":"Silver white metal. Intensely radioactive.","discoverer":"Pierre and Marie Curie","ionicRadius":"1.43","numberOfProtons":"88","opticalRefractiveIndex":"","abundanceSea":"8.9x10⁻¹¹","atomicMass":"226.0254","molarVolume":"","ionizationPotentialFirst":"5.279","enthalpyOfFusion":"","hardnessScale":"","density":"5","enthalpyOfAtomization":"163","qualitativeSolubility":"","specificHeat":"","name":"Radium","valenceElectronPotential":"20.1","covalentRadius":"","electronWorkFunction":"","valenceElectrons":[{"7s":"2"}],"atomicMassKnownAccurately":false,"period":"7","symbol":"Ra","nuclidesAndIsotopes":[{"nuclideSymbol":"","decayEnergy":"","decayModes":"","zp":"","halfLife":"","nn":"","nuclearSpin":"","daughterIsotopes":"","isotopicComposition":"","atomicMass":""}],"atomicMassFootnote":"a","incompatibilities":"","fillingOrbital":[{"7s":"2"}],"atomicRadius":"","enthalpyOfVaporization":"","heatOfVaporization":"","group":"2","atomicNumber":88,"relativeGasDensity":"","ionizationPotentialThird":"","crossSection":"20","electroChemicalEquivalent":"4.2165","electronConfiguration":{"3d":"10","5s":"2","4s":"2","6p":"6","3s":"2","4f":"14","5p":"6","2s":"2","4p":"6","1s":"2","3p":"6","2p":"6","5d":"10","7s":"2","4d":"10","6s":"2"},"criticalTemperature":"","heatOfFusion":"37"}