{"hardnessScaleMohs":"0.3","opticalReflectivity":"","meltingPointFootnote":"","conductivityElectrical":"0.0779","standardCondition":"Solid","crystalStructure":"CubicBody","coefficientOfLinealThermalExpansion":"0.00009","flammabilityClass":"","molarHeatCapacity":"31.060","numberOfNeutrons":"48","series":"Alkali Metal","vaporPressure":{"pa10":"212.5","pa100kFootnote":"","pa100Footnote":"","pa100":"278.9","pa1Footnote":"","pa1":"160.4","pa1kFootnote":"","pa1k":"368","pa10kFootnote":"","pa10Footnote":"","pa10k":"496.1","pa100k":"685.3"},"casRegistryNumber":"7440-17-7","oxidationStates":"1","lineSpectra":[{"intensity":"0","airWavelength":"0","spectrum":"TBD"}],"numberOfElectrons":"37","magneticSusceptibility":"+17","atomicVolume":"55.9","abundanceCrust":"9.0x10¹","boilingPoint":"688","discoveryYear":"1861","electroNegativity":"0.82","meltingPoint":"39.30","elasticModulusBulk":"2.5","boilingPointFootnote":"","ionizationPotentialSecond":"27.28","conductivityThermal":"0.582","discoveryLocation":"Germany","descr":"Soft silver white metal.","elasticModulusRigidity":"","discoverer":"R. Bunsen, G. Kirchoff","ionicRadius":"1.52","numberOfProtons":"37","abundanceSea":"1.2x10⁻¹","atomicMass":"85.4678","molarVolume":"55.79","ionizationPotentialFirst":"4.177","hardnessScaleVickers":"","enthalpyOfAtomization":"82","density":"1.53","enthalpyOfFusion":"219","opticalRefractiveIndex":"","qualitativeSolubility":"reacts with H₂0","name":"Rubidium","specificHeat":"0.363","atomicMassUncertainty":3,"valenceElectronPotential":"9.47","covalentRadius":"2.16","electronWorkFunction":"2.16","valenceElectrons":[{"5s":"1"}],"atomicMassKnownAccurately":true,"period":"5","symbol":"Rb","nuclidesAndIsotopes":[{"nuclideSymbol":"Rb71","decayEnergy":"","decayModes":"","zp":"","halfLife":"","nn":"34","nuclearSpin":"","daughterIsotopes":"","isotopicComposition":"Syn","atomicMass":"70.965"},{"nuclideSymbol":"Rb72","decayEnergy":"","decayModes":"","zp":"","halfLife":"","nn":"35","nuclearSpin":"","daughterIsotopes":"","isotopicComposition":"Syn","atomicMass":"71.959"},{"nuclideSymbol":"Rb73","decayEnergy":"","decayModes":"","zp":"","halfLife":"","nn":"36","nuclearSpin":"","daughterIsotopes":"","isotopicComposition":"Syn","atomicMass":"72.95"},{"nuclideSymbol":"Rb74","decayEnergy":"10.400","decayModes":"ξ","zp":"","halfLife":"64.9ms","nn":"37","nuclearSpin":"0+","daughterIsotopes":"Kr74","isotopicComposition":"Syn","atomicMass":"73.944"},{"nuclideSymbol":"Rb75","decayEnergy":"7.020","decayModes":"ξ","zp":"","halfLife":"19s","nn":"38","nuclearSpin":"2-, 5\/2-","daughterIsotopes":"Kr75","isotopicComposition":"Syn","atomicMass":"74.9386"},{"nuclideSymbol":"Rb76","decayEnergy":"8.500","decayModes":"ξ","zp":"","halfLife":"36.5s","nn":"39","nuclearSpin":"1-","daughterIsotopes":"Kr76","isotopicComposition":"Syn","atomicMass":"75.9351"},{"nuclideSymbol":"Rb77","decayEnergy":"5.346","decayModes":"ξ","zp":"","halfLife":"3.77m","nn":"40","nuclearSpin":"3\/2-","daughterIsotopes":"Kr77","isotopicComposition":"Syn","atomicMass":"76.9304"},{"nuclideSymbol":"Rb78","decayEnergy":"7.224","decayModes":"ξ","zp":"","halfLife":"17.66m","nn":"41","nuclearSpin":"0+","daughterIsotopes":"Kr78","isotopicComposition":"Syn","atomicMass":"77.9281"},{"nuclideSymbol":"MS","decayEnergy":"7.327","decayModes":"ξ","zp":"90","halfLife":"5.74m","nn":"","nuclearSpin":"4-","daughterIsotopes":"Kr78","isotopicComposition":"Syn","atomicMass":"0.103MeV"},{"nuclideSymbol":"","decayEnergy":"0.103","decayModes":"IT","zp":"10","halfLife":"5.74m","nn":"","nuclearSpin":"","daughterIsotopes":"","isotopicComposition":"","atomicMass":""},{"nuclideSymbol":"Rb79","decayEnergy":"3.649","decayModes":"ξ","zp":"","halfLife":"22.9m","nn":"42","nuclearSpin":"5\/2+","daughterIsotopes":"Kr79","isotopicComposition":"Syn","atomicMass":"78.9231"},{"nuclideSymbol":"Rb80","decayEnergy":"5.723","decayModes":"ξ","zp":"","halfLife":"34s","nn":"43","nuclearSpin":"1+","daughterIsotopes":"Kr80","isotopicComposition":"Syn","atomicMass":"79.9225"},{"nuclideSymbol":"Rb81","decayEnergy":"2.237","decayModes":"ξ","zp":"","halfLife":"4.576h","nn":"44","nuclearSpin":"3\/2-","daughterIsotopes":"Kr81","isotopicComposition":"Syn","atomicMass":"80.919"},{"nuclideSymbol":"MS","decayEnergy":"0.086","decayModes":"IT","zp":"97.6","halfLife":"30.5m","nn":"","nuclearSpin":"9\/2+","daughterIsotopes":"","isotopicComposition":"Syn","atomicMass":"0.086MeV"},{"nuclideSymbol":"","decayEnergy":"2.323","decayModes":"ξ","zp":"2.4","halfLife":"30.5m","nn":"","nuclearSpin":"","daughterIsotopes":"Kr81","isotopicComposition":"","atomicMass":""},{"nuclideSymbol":"Rb82","decayEnergy":"4.400","decayModes":"ξ","zp":"","halfLife":"1.273m","nn":"45","nuclearSpin":"1+","daughterIsotopes":"Kr82","isotopicComposition":"Syn","atomicMass":"81.9182"},{"nuclideSymbol":"MS","decayEnergy":"0.069","decayModes":"IT","zp":"<0.33","halfLife":"6.472h","nn":"","nuclearSpin":"5-","daughterIsotopes":"Rb82","isotopicComposition":"Syn","atomicMass":"0.068MeV"},{"nuclideSymbol":"","decayEnergy":"4.469","decayModes":"ξ","zp":"","halfLife":"6.472h","nn":"","nuclearSpin":"","daughterIsotopes":"Kr82","isotopicComposition":"","atomicMass":""},{"nuclideSymbol":"Rb83","decayEnergy":"0.910","decayModes":"ξ","zp":"","halfLife":"86.2d","nn":"46","nuclearSpin":"5\/2-","daughterIsotopes":"Kr83","isotopicComposition":"Syn","atomicMass":"82.9151"},{"nuclideSymbol":"MS","decayEnergy":"","decayModes":"ξ","zp":"","halfLife":"7.8ms","nn":"","nuclearSpin":"9\/2+","daughterIsotopes":"","isotopicComposition":"Syn","atomicMass":""},{"nuclideSymbol":"","decayEnergy":"","decayModes":"IT","zp":"","halfLife":"7.8ms","nn":"","nuclearSpin":"","daughterIsotopes":"","isotopicComposition":"","atomicMass":""},{"nuclideSymbol":"Rb84","decayEnergy":"2.681","decayModes":"ξ","zp":"96.2","halfLife":"32.77d","nn":"47","nuclearSpin":"2-","daughterIsotopes":"Kr84","isotopicComposition":"Syn","atomicMass":"83.9144"},{"nuclideSymbol":"","decayEnergy":"0.894","decayModes":"β-","zp":"3.8","halfLife":"32.77d","nn":"","nuclearSpin":"","daughterIsotopes":"Sr84","isotopicComposition":"","atomicMass":""},{"nuclideSymbol":"MS","decayEnergy":"0.464","decayModes":"IT","zp":"","halfLife":"20.26m","nn":"","nuclearSpin":"6-","daughterIsotopes":"","isotopicComposition":"Syn","atomicMass":"0.463MeV"},{"nuclideSymbol":"Rb85","decayEnergy":"","decayModes":"","zp":"","halfLife":"Stable","nn":"48","nuclearSpin":"5\/2-","daughterIsotopes":"","isotopicComposition":"72.165","atomicMass":"84.9118"},{"nuclideSymbol":"Rb86","decayEnergy":"1.774","decayModes":"β-","zp":"99.99","halfLife":"18.631d","nn":"49","nuclearSpin":"2-","daughterIsotopes":"Sr86","isotopicComposition":"Syn","atomicMass":"85.9112"},{"nuclideSymbol":"","decayEnergy":"0.519","decayModes":"ξ","zp":"0.0052","halfLife":"18.631d","nn":"","nuclearSpin":"","daughterIsotopes":"Kr86","isotopicComposition":"","atomicMass":""},{"nuclideSymbol":"MS","decayEnergy":"0.556","decayModes":"IT","zp":"","halfLife":"1.017m","nn":"","nuclearSpin":"6-","daughterIsotopes":"","isotopicComposition":"Syn","atomicMass":"0.556MeV"},{"nuclideSymbol":"Rb87","decayEnergy":"0.283","decayModes":"β-","zp":"","halfLife":"4.75E¹⁰y","nn":"50","nuclearSpin":"3\/2-","daughterIsotopes":"Sr87","isotopicComposition":"27.835","atomicMass":"86.9092"},{"nuclideSymbol":"Rb88","decayEnergy":"5.316","decayModes":"β-","zp":"","halfLife":"17.78m","nn":"51","nuclearSpin":"2-","daughterIsotopes":"Sr88","isotopicComposition":"Syn","atomicMass":"87.9113"},{"nuclideSymbol":"Rb89","decayEnergy":"4.501","decayModes":"β-","zp":"","halfLife":"15.15m","nn":"52","nuclearSpin":"3\/2-","daughterIsotopes":"Sr89","isotopicComposition":"Syn","atomicMass":"88.9123"},{"nuclideSymbol":"Rb90","decayEnergy":"6.590","decayModes":"β-","zp":"","halfLife":"158s","nn":"53","nuclearSpin":"0-","daughterIsotopes":"Sr90","isotopicComposition":"Syn","atomicMass":"89.9148"},{"nuclideSymbol":"MS","decayEnergy":"6.697","decayModes":"β-","zp":"97.4","halfLife":"258s","nn":"","nuclearSpin":"3-","daughterIsotopes":"Sr90","isotopicComposition":"Syn","atomicMass":"0.107MeV"},{"nuclideSymbol":"","decayEnergy":"0.107","decayModes":"IT","zp":"2.6","halfLife":"258s","nn":"","nuclearSpin":"","daughterIsotopes":"","isotopicComposition":"","atomicMass":""},{"nuclideSymbol":"Rb91","decayEnergy":"5.861","decayModes":"β-","zp":"","halfLife":"58.4s","nn":"54","nuclearSpin":"3\/2-","daughterIsotopes":"Sr91","isotopicComposition":"Syn","atomicMass":"90.9165"},{"nuclideSymbol":"Rb92","decayEnergy":"0.763","decayModes":"β- + N","zp":"0.01","halfLife":"4.492s","nn":"55","nuclearSpin":"0-","daughterIsotopes":"Sr91","isotopicComposition":"Syn","atomicMass":"91.9197"},{"nuclideSymbol":"","decayEnergy":"8.105","decayModes":"β-","zp":"","halfLife":"4.492s","nn":"","nuclearSpin":"","daughterIsotopes":"Sr92","isotopicComposition":"","atomicMass":""},{"nuclideSymbol":"Rb93","decayEnergy":"2.178","decayModes":"β- + N","zp":"1.39","halfLife":"5.84s","nn":"56","nuclearSpin":"5\/2-","daughterIsotopes":"Sr92","isotopicComposition":"Syn","atomicMass":"92.922"},{"nuclideSymbol":"","decayEnergy":"7.462","decayModes":"β-","zp":"","halfLife":"5.84s","nn":"","nuclearSpin":"","daughterIsotopes":"Sr93","isotopicComposition":"","atomicMass":""},{"nuclideSymbol":"Rb94","decayEnergy":"3.560","decayModes":"β- + N","zp":"10.01","halfLife":"2.702s","nn":"57","nuclearSpin":"3-","daughterIsotopes":"Sr93","isotopicComposition":"Syn","atomicMass":"93.9264"},{"nuclideSymbol":"","decayEnergy":"10.307","decayModes":"β-","zp":"","halfLife":"2.702s","nn":"","nuclearSpin":"","daughterIsotopes":"Sr94","isotopicComposition":"","atomicMass":""},{"nuclideSymbol":"Rb95","decayEnergy":"4.932","decayModes":"β- + N","zp":"8.73","halfLife":"377.5ms","nn":"58","nuclearSpin":"5\/2-","daughterIsotopes":"Sr94","isotopicComposition":"Syn","atomicMass":"94.9293"},{"nuclideSymbol":"","decayEnergy":"9.279","decayModes":"β-","zp":"","halfLife":"377.5ms","nn":"","nuclearSpin":"","daughterIsotopes":"Sr95","isotopicComposition":"","atomicMass":""},{"nuclideSymbol":"Rb96","decayEnergy":"5.861","decayModes":"β- + N","zp":"14","halfLife":"0.199s","nn":"59","nuclearSpin":"2+","daughterIsotopes":"Sr95","isotopicComposition":"Syn","atomicMass":"95.9343"},{"nuclideSymbol":"","decayEnergy":"11.756","decayModes":"β-","zp":"","halfLife":"0.199s","nn":"","nuclearSpin":"","daughterIsotopes":"Sr96","isotopicComposition":"","atomicMass":""},{"nuclideSymbol":"Rb97","decayEnergy":"6.540","decayModes":"β- + N","zp":"25.1","halfLife":"169.9ms","nn":"60","nuclearSpin":"3\/2+","daughterIsotopes":"Sr96","isotopicComposition":"Syn","atomicMass":"96.9373"},{"nuclideSymbol":"","decayEnergy":"10.420","decayModes":"β-","zp":"","halfLife":"169.9ms","nn":"","nuclearSpin":"","daughterIsotopes":"Sr97","isotopicComposition":"","atomicMass":""},{"nuclideSymbol":"Rb98","decayEnergy":"6.460","decayModes":"β- + N","zp":"13.6","halfLife":"114ms","nn":"61","nuclearSpin":"1, 0","daughterIsotopes":"Sr97","isotopicComposition":"Syn","atomicMass":"97.9417"},{"nuclideSymbol":"","decayEnergy":"2.570","decayModes":"β- + 2N","zp":"0.05","halfLife":"114ms","nn":"","nuclearSpin":"","daughterIsotopes":"Sr96","isotopicComposition":"","atomicMass":""},{"nuclideSymbol":"","decayEnergy":"12.344","decayModes":"β-","zp":"","halfLife":"114ms","nn":"","nuclearSpin":"","daughterIsotopes":"Sr98","isotopicComposition":"","atomicMass":""},{"nuclideSymbol":"MS","decayEnergy":"12.614","decayModes":"β-","zp":"","halfLife":"96ms","nn":"","nuclearSpin":"4, 5","daughterIsotopes":"Sr98","isotopicComposition":"Syn","atomicMass":"0270MeV"},{"nuclideSymbol":"","decayEnergy":"6.730","decayModes":"β- + N","zp":"","halfLife":"96ms","nn":"","nuclearSpin":"","daughterIsotopes":"Sr97","isotopicComposition":"","atomicMass":""},{"nuclideSymbol":"Rb99","decayEnergy":"7.610","decayModes":"β- + N","zp":"20.7","halfLife":"50.3ms","nn":"62","nuclearSpin":"5\/2+","daughterIsotopes":"Sr98","isotopicComposition":"Syn","atomicMass":"98.945"},{"nuclideSymbol":"","decayEnergy":"11.250","decayModes":"β-","zp":"","halfLife":"50.3ms","nn":"","nuclearSpin":"","daughterIsotopes":"Sr99","isotopicComposition":"","atomicMass":""},{"nuclideSymbol":"Rb100","decayEnergy":"7.400","decayModes":"β- + N","zp":"6","halfLife":"51ms","nn":"63","nuclearSpin":"","daughterIsotopes":"Sr99","isotopicComposition":"Syn","atomicMass":"99.95"},{"nuclideSymbol":"","decayEnergy":"13.500","decayModes":"β- + 2N","zp":"0.16","halfLife":"51ms","nn":"","nuclearSpin":"","daughterIsotopes":"Sr98","isotopicComposition":"","atomicMass":""},{"nuclideSymbol":"","decayEnergy":"13.500","decayModes":"β-","zp":"","halfLife":"51ms","nn":"","nuclearSpin":"","daughterIsotopes":"Sr100","isotopicComposition":"","atomicMass":""},{"nuclideSymbol":"Rb101","decayEnergy":"8.550","decayModes":"β- + N","zp":"31","halfLife":"32ms","nn":"64","nuclearSpin":"3\/2+","daughterIsotopes":"Sr100","isotopicComposition":"Syn","atomicMass":"100.953"},{"nuclideSymbol":"","decayEnergy":"11.810","decayModes":"β-","zp":"","halfLife":"32ms","nn":"","nuclearSpin":"","daughterIsotopes":"Sr101","isotopicComposition":"","atomicMass":""},{"nuclideSymbol":"Rb102","decayEnergy":"18","decayModes":"β- + N","zp":"","halfLife":"37ms","nn":"65","nuclearSpin":"","daughterIsotopes":"Sr101","isotopicComposition":"Syn","atomicMass":"101.959"},{"nuclideSymbol":"","decayEnergy":"","decayModes":"β-","zp":"","halfLife":"37ms","nn":"","nuclearSpin":"","daughterIsotopes":"Sr102","isotopicComposition":"","atomicMass":""}],"elasticModulusYoungs":"2.4","atomicMassFootnote":"g","incompatibilities":"","fillingOrbital":[{"5s":"1"}],"atomicRadius":"2.98","enthalpyOfVaporization":"69.2","heatOfVaporization":"72.216","hardnessScaleBrinell":"0.216","group":"1","atomicNumber":37,"relativeGasDensity":"","ionizationPotentialThird":"40","crossSection":"0.5","electroChemicalEquivalent":"3.1888","electronConfiguration":{"4p":"6","5s":"1","3p":"6","4s":"2","2p":"6","3s":"2","2s":"2","3d":"10","1s":"2"},"criticalTemperature":"1820","heatOfFusion":"2.192"}