{"hardnessScaleMohs":"7","opticalReflectivity":"","meltingPointFootnote":"","conductivityElectrical":"0.0542","standardCondition":"Solid","crystalStructure":"Hexagonal","coefficientOfLinealThermalExpansion":"0.0000067","flammabilityClass":"","molarHeatCapacity":"25.48","numberOfNeutrons":"111","series":"Transition Metal","vaporPressure":{"pa100k":"5681","pa100kFootnote":"","pa100Footnote":"","pa100":"3736","pa1Footnote":"s","pa1":"3030","pa1kFootnote":"","pa1k":"4227","pa10kFootnote":"","pa10Footnote":"","pa10k":"4854","pa10":"3341"},"casRegistryNumber":"7440-15-5","oxidationStates":"6, 4, ±2","lineSpectra":[{"intensity":"0","airWavelength":"0","spectrum":"TBD"}],"numberOfElectrons":"75","magneticSusceptibility":"+67","atomicVolume":"8.85","abundanceCrust":"7x10⁻⁴","boilingPoint":"5596","discoveryYear":"1925","electroNegativity":"1.9","meltingPoint":"3186","elasticModulusBulk":"370","boilingPointFootnote":"","ionizationPotentialSecond":"","conductivityThermal":"0.479","discoveryLocation":"Germany","descr":"Rare and expensive silver white metal.","elasticModulusRigidity":"178","discoverer":"Walter Noddack, Ida Tacke, Otto Berg","ionicRadius":"0.56","numberOfProtons":"75","abundanceSea":"4x10⁻⁶","atomicMass":"186.207","molarVolume":"9.07","ionizationPotentialFirst":"7.88","hardnessScaleVickers":"2450","enthalpyOfAtomization":"791","density":"21.8","enthalpyOfFusion":"33.05","opticalRefractiveIndex":"","qualitativeSolubility":"insoluble in HCl","name":"Rhenium","specificHeat":"0.137","atomicMassUncertainty":1,"valenceElectronPotential":"180","covalentRadius":"1.28","electronWorkFunction":"4.96","valenceElectrons":[{"5d":"5"},{"6s":"2"}],"atomicMassKnownAccurately":true,"period":"6","symbol":"Re","nuclidesAndIsotopes":[{"nuclideSymbol":"","decayEnergy":"","decayModes":"","zp":"","halfLife":"","nn":"","nuclearSpin":"","daughterIsotopes":"","isotopicComposition":"","atomicMass":""}],"elasticModulusYoungs":"463","atomicMassFootnote":"","incompatibilities":"","fillingOrbital":[{"5d":"5"}],"atomicRadius":"1.97","enthalpyOfVaporization":"707.1","heatOfVaporization":"715","hardnessScaleBrinell":"1320","group":"7","atomicNumber":75,"relativeGasDensity":"","ionizationPotentialThird":"","crossSection":"85","electroChemicalEquivalent":"0.9924","electronConfiguration":{"3d":"10","5s":"2","4s":"2","3s":"2","4f":"14","5p":"6","2s":"2","4p":"6","1s":"2","3p":"6","2p":"6","5d":"5","4d":"10","6s":"2"},"criticalTemperature":"","heatOfFusion":"33.2"}