{"hardnessScaleMohs":"6","opticalReflectivity":"84","meltingPointFootnote":"","conductivityElectrical":"0.211","standardCondition":"Solid","crystalStructure":"CubicFace","coefficientOfLinealThermalExpansion":"0.0000083","flammabilityClass":"Non-combustible solid (except as dust)","molarHeatCapacity":"24.98","numberOfNeutrons":"58","series":"Transition Metal","vaporPressure":{"pa100k":"3724","pa100kFootnote":"","pa100Footnote":"","pa100":"2476","pa1Footnote":"","pa1":"2015","pa1kFootnote":"","pa1k":"2790","pa10kFootnote":"","pa10Footnote":"","pa10k":"3132","pa10":"2223"},"casRegistryNumber":"7440-16-6","oxidationStates":"2, 3, 4","lineSpectra":[{"intensity":"0","airWavelength":"0","spectrum":"TBD"}],"numberOfElectrons":"45","magneticSusceptibility":"+102","atomicVolume":"8.3","abundanceCrust":"1x10⁻³","boilingPoint":"3695","discoveryYear":"1803","electroNegativity":"2.28","meltingPoint":"1964","elasticModulusBulk":"380","boilingPointFootnote":"","ionizationPotentialSecond":"18.08","conductivityThermal":"1.5","discoveryLocation":"England","descr":"Hard silver white metal","elasticModulusRigidity":"150","discoverer":"William Wollaston","ionicRadius":"0.68","numberOfProtons":"45","abundanceSea":"","atomicMass":"102.90550","molarVolume":"8.3","ionizationPotentialFirst":"7.46","hardnessScaleVickers":"1246","enthalpyOfAtomization":"556.5","density":"12.4","enthalpyOfFusion":"21.76","opticalRefractiveIndex":"","qualitativeSolubility":"insoluble in acid; soluble in aqua regia","name":"Rhodium","specificHeat":"0.243","atomicMassUncertainty":2,"valenceElectronPotential":"64","covalentRadius":"1.25","electronWorkFunction":"4.98","valenceElectrons":[{"4d":"8"},{"5s":"1"}],"atomicMassKnownAccurately":true,"period":"5","symbol":"Rh","nuclidesAndIsotopes":[{"nuclideSymbol":"","decayEnergy":"","decayModes":"","zp":"","halfLife":"","nn":"","nuclearSpin":"","daughterIsotopes":"","isotopicComposition":"","atomicMass":""}],"elasticModulusYoungs":"275","atomicMassFootnote":"","incompatibilities":"Chlorine trifloride, oxygen difloride","fillingOrbital":[{"4d":"8"}],"atomicRadius":"1.83","enthalpyOfVaporization":"495.4","heatOfVaporization":"493","hardnessScaleBrinell":"1100","group":"9","atomicNumber":45,"relativeGasDensity":"","ionizationPotentialThird":"31.06","crossSection":"150","electroChemicalEquivalent":"1.2798","electronConfiguration":{"4p":"6","5s":"1","3p":"6","4s":"2","2p":"6","3s":"2","2s":"2","3d":"10","1s":"2","4d":"8"},"criticalTemperature":"","heatOfFusion":"21.5"}