{"hardnessScaleMohs":"","opticalReflectivity":"","meltingPointFootnote":"","conductivityElectrical":"","standardCondition":"Gas","crystalStructure":"CubicFace","coefficientOfLinealThermalExpansion":"","flammabilityClass":"","molarHeatCapacity":"20.786","numberOfNeutrons":"136","series":"Noble Gas","vaporPressure":{"pa100k":"-62.3","pa100kFootnote":"","pa100Footnote":"s","pa100":"-139","pa1Footnote":"s","pa1":"-163","pa1kFootnote":"s","pa1k":"-121.4","pa10kFootnote":"s","pa10Footnote":"s","pa10k":"-97.6","pa10":"-152"},"casRegistryNumber":"10043-92-2","oxidationStates":"0","lineSpectra":[{"intensity":"0","airWavelength":"0","spectrum":"TBD"}],"numberOfElectrons":"86","magneticSusceptibility":"","atomicVolume":"50.5","abundanceCrust":"4x10⁻¹³","boilingPoint":"-61.7","discoveryYear":"1898","electroNegativity":"0","meltingPoint":"-71","elasticModulusBulk":"","boilingPointFootnote":"","ionizationPotentialSecond":"","conductivityThermal":"0.0000364","discoveryLocation":"Germany","descr":"Tasteless, colorless, odorless radioactive noble gas.","elasticModulusRigidity":"","discoverer":"Fredrich Ernst Dorn","ionicRadius":"","numberOfProtons":"86","abundanceSea":"6x10⁻¹⁶","atomicMass":"222.0176","molarVolume":"50.5","ionizationPotentialFirst":"10.748","hardnessScaleVickers":"","enthalpyOfAtomization":"","density":"9.074","enthalpyOfFusion":"2.89","opticalRefractiveIndex":"","qualitativeSolubility":"soluble in H₂0","name":"Radon","specificHeat":"0.094","valenceElectronPotential":"","covalentRadius":"","electronWorkFunction":"","valenceElectrons":[{"6s":"2"},{"6p":"6"}],"atomicMassKnownAccurately":false,"period":"6","symbol":"Rn","nuclidesAndIsotopes":[{"nuclideSymbol":"","decayEnergy":"","decayModes":"","zp":"","halfLife":"","nn":"","nuclearSpin":"","daughterIsotopes":"","isotopicComposition":"","atomicMass":""}],"elasticModulusYoungs":"","atomicMassFootnote":"a","incompatibilities":"","fillingOrbital":[{"6p":"6"}],"atomicRadius":"1.34","enthalpyOfVaporization":"16.4","heatOfVaporization":"16.4","hardnessScaleBrinell":"","group":"18","atomicNumber":86,"relativeGasDensity":"","ionizationPotentialThird":"","crossSection":"0.72","electroChemicalEquivalent":"","electronConfiguration":{"3d":"10","5s":"2","4s":"2","6p":"6","3s":"2","4f":"14","5p":"6","2s":"2","4p":"6","1s":"2","3p":"6","2p":"6","5d":"10","4d":"10","6s":"2"},"criticalTemperature":"104","heatOfFusion":"2.89"}