{"hardnessScaleMohs":"6.5","opticalReflectivity":"","meltingPointFootnote":"","conductivityElectrical":"0.137","standardCondition":"Solid","crystalStructure":"Hexagonal","coefficientOfLinealThermalExpansion":"0.00000991","flammabilityClass":"","molarHeatCapacity":"24.06","numberOfNeutrons":"57","series":"Transition Metal","vaporPressure":{"pa10":"2538","pa100kFootnote":"","pa100Footnote":"","pa100":"2814","pa1Footnote":"s","pa1":"2315","pa1kFootnote":"","pa1k":"3151","pa10kFootnote":"","pa10Footnote":"","pa10k":"3572","pa100k":"4115"},"casRegistryNumber":"7440-18-8","oxidationStates":"2, 3, 4, 6, 8","lineSpectra":[{"intensity":"0","airWavelength":"0","spectrum":"TBD"}],"numberOfElectrons":"44","magneticSusceptibility":"+39","atomicVolume":"8.3","abundanceCrust":"1x10⁻³","boilingPoint":"4150","discoveryYear":"1844","electroNegativity":"2.2","meltingPoint":"2334","elasticModulusBulk":"220","boilingPointFootnote":"","ionizationPotentialSecond":"16.76","conductivityThermal":"1.17","discoveryLocation":"Russia","descr":"Rare hard brittle silvery metal.","elasticModulusRigidity":"173","discoverer":"Karl Klaus","ionicRadius":"0.68","numberOfProtons":"44","abundanceSea":"7x10⁻⁷","atomicMass":"101.07","molarVolume":"8.22","ionizationPotentialFirst":"7.37","hardnessScaleVickers":"","enthalpyOfAtomization":"603","density":"12.1","enthalpyOfFusion":"25.5","opticalRefractiveIndex":"","qualitativeSolubility":"insoluble in acid, aqua regia","name":"Ruthenium","specificHeat":"0.238","atomicMassUncertainty":2,"valenceElectronPotential":"64","covalentRadius":"1.25","electronWorkFunction":"4.71","valenceElectrons":[{"4d":"7"},{"5s":"1"}],"atomicMassKnownAccurately":true,"period":"5","symbol":"Ru","nuclidesAndIsotopes":[{"nuclideSymbol":"Ru87","decayEnergy":"","decayModes":"","zp":"","halfLife":">1.5us","nn":"43","nuclearSpin":"","daughterIsotopes":"","isotopicComposition":"Syn","atomicMass":"86.949"},{"nuclideSymbol":"Ru88","decayEnergy":"","decayModes":"","zp":"","halfLife":">150ns","nn":"44","nuclearSpin":"0+","daughterIsotopes":"","isotopicComposition":"Syn","atomicMass":"87.94"},{"nuclideSymbol":"Ru89","decayEnergy":"","decayModes":"","zp":"","halfLife":"","nn":"45","nuclearSpin":"","daughterIsotopes":"","isotopicComposition":"Syn","atomicMass":"88.936"},{"nuclideSymbol":"Ru90","decayEnergy":"5.600","decayModes":"ξ","zp":"","halfLife":"11s","nn":"46","nuclearSpin":"0+","daughterIsotopes":"Tc90","isotopicComposition":"Syn","atomicMass":"89.93"},{"nuclideSymbol":"Ru91","decayEnergy":"7.400","decayModes":"ξ","zp":"","halfLife":"9s","nn":"47","nuclearSpin":"9\/2+","daughterIsotopes":"Tc91","isotopicComposition":"Syn","atomicMass":"90.926"},{"nuclideSymbol":"MS","decayEnergy":"7.400","decayModes":"ξ","zp":">0","halfLife":"7.6s","nn":"","nuclearSpin":"1\/2-","daughterIsotopes":"Tc91","isotopicComposition":"Syn","atomicMass":"0.000MeV"},{"nuclideSymbol":"","decayEnergy":"4.300","decayModes":"ξ + P","zp":">0","halfLife":"7.6s","nn":"","nuclearSpin":"","daughterIsotopes":"Mo90","isotopicComposition":"","atomicMass":""},{"nuclideSymbol":"","decayEnergy":"","decayModes":"IT","zp":"","halfLife":"7.6s","nn":"","nuclearSpin":"","daughterIsotopes":"Ru91","isotopicComposition":"","atomicMass":""},{"nuclideSymbol":"Ru92","decayEnergy":"4.500","decayModes":"ξ","zp":"","halfLife":"3.65m","nn":"48","nuclearSpin":"0+","daughterIsotopes":"Tc92","isotopicComposition":"Syn","atomicMass":"91.92"},{"nuclideSymbol":"Ru93","decayEnergy":"6.340","decayModes":"ξ","zp":"","halfLife":"59.7s","nn":"49","nuclearSpin":"9\/2+","daughterIsotopes":"Tc93","isotopicComposition":"Syn","atomicMass":"92.9171"},{"nuclideSymbol":"MS","decayEnergy":"7.074","decayModes":"ξ","zp":"","halfLife":"10.8s","nn":"","nuclearSpin":"1\/2-","daughterIsotopes":"Tc93\t78","isotopicComposition":"Syn","atomicMass":"0.734MeV"},{"nuclideSymbol":"","decayEnergy":"0.734","decayModes":"IT","zp":"22","halfLife":"10.8s","nn":"","nuclearSpin":"","daughterIsotopes":"","isotopicComposition":"","atomicMass":""},{"nuclideSymbol":"","decayEnergy":"2.984","decayModes":"ξ + P","zp":"0.03","halfLife":"10.8s","nn":"","nuclearSpin":"","daughterIsotopes":"Mo92","isotopicComposition":"","atomicMass":""},{"nuclideSymbol":"Ru94","decayEnergy":"1.593","decayModes":"ξ","zp":"","halfLife":"51.8m","nn":"50","nuclearSpin":"0+","daughterIsotopes":"Tc94","isotopicComposition":"Syn","atomicMass":"93.9114"},{"nuclideSymbol":"Ru95","decayEnergy":"2.572","decayModes":"ξ","zp":"","halfLife":"1.643h","nn":"51","nuclearSpin":"5\/2+","daughterIsotopes":"Tc95","isotopicComposition":"Syn","atomicMass":"94.9104"},{"nuclideSymbol":"Ru96","decayEnergy":"","decayModes":"","zp":"","halfLife":"Stable","nn":"52","nuclearSpin":"0+","daughterIsotopes":"","isotopicComposition":"5.52","atomicMass":"95.9076"},{"nuclideSymbol":"Ru97","decayEnergy":"1.115","decayModes":"ξ","zp":"","halfLife":"2.9d","nn":"53","nuclearSpin":"5\/2+","daughterIsotopes":"Tc97","isotopicComposition":"Syn","atomicMass":"96.9076"},{"nuclideSymbol":"Ru98","decayEnergy":"","decayModes":"","zp":"","halfLife":"Stable","nn":"54","nuclearSpin":"0+","daughterIsotopes":"","isotopicComposition":"1.88","atomicMass":"97.9053"},{"nuclideSymbol":"Ru99","decayEnergy":"","decayModes":"","zp":"","halfLife":"Stable","nn":"55","nuclearSpin":"5\/2+","daughterIsotopes":"","isotopicComposition":"12.7","atomicMass":"98.9059"},{"nuclideSymbol":"Ru100","decayEnergy":"","decayModes":"","zp":"","halfLife":"Stable","nn":"56","nuclearSpin":"0+","daughterIsotopes":"","isotopicComposition":"12.6","atomicMass":"99.9042"},{"nuclideSymbol":"Ru101","decayEnergy":"","decayModes":"","zp":"","halfLife":"Stable","nn":"57","nuclearSpin":"5\/2+","daughterIsotopes":"","isotopicComposition":"17.0","atomicMass":"100.9056"},{"nuclideSymbol":"MS","decayEnergy":"0.527","decayModes":"IT","zp":"","halfLife":"17.5us","nn":"","nuclearSpin":"11\/2-","daughterIsotopes":"","isotopicComposition":"Syn","atomicMass":"0.527MeV"},{"nuclideSymbol":"Ru102","decayEnergy":"","decayModes":"","zp":"","halfLife":"Stable","nn":"58","nuclearSpin":"0+","daughterIsotopes":"","isotopicComposition":"31.6","atomicMass":"101.9044"},{"nuclideSymbol":"Ru103","decayEnergy":"0.763","decayModes":"β-","zp":"","halfLife":"39.26d","nn":"59","nuclearSpin":"3\/2+","daughterIsotopes":"Rh103","isotopicComposition":"Syn","atomicMass":"102.9063"},{"nuclideSymbol":"MS","decayEnergy":"0.238","decayModes":"IT","zp":"","halfLife":"1.69ms","nn":"","nuclearSpin":"11\/2-","daughterIsotopes":"","isotopicComposition":"Syn","atomicMass":"0.238MeV"},{"nuclideSymbol":"Ru104","decayEnergy":"","decayModes":"","zp":"","halfLife":"Stable","nn":"60","nuclearSpin":"0+","daughterIsotopes":"","isotopicComposition":"18.7","atomicMass":"103.9054"},{"nuclideSymbol":"Ru105","decayEnergy":"1.917","decayModes":"β-","zp":"","halfLife":"4.44h","nn":"61","nuclearSpin":"3\/2+","daughterIsotopes":"Rh105","isotopicComposition":"Syn","atomicMass":"104.9078"},{"nuclideSymbol":"Ru106","decayEnergy":"0.039","decayModes":"β-","zp":"","halfLife":"373.59d","nn":"62","nuclearSpin":"0+","daughterIsotopes":"Rh106","isotopicComposition":"Syn","atomicMass":"105.9073"},{"nuclideSymbol":"Ru107","decayEnergy":"2.940","decayModes":"β-","zp":"","halfLife":"3.75m","nn":"63","nuclearSpin":"5\/2+","daughterIsotopes":"Rh107","isotopicComposition":"Syn","atomicMass":"106.91"},{"nuclideSymbol":"Ru108","decayEnergy":"1.360","decayModes":"β-","zp":"","halfLife":"4.55m","nn":"64","nuclearSpin":"0+","daughterIsotopes":"Rh108","isotopicComposition":"Syn","atomicMass":"107.91"},{"nuclideSymbol":"Ru109","decayEnergy":"4.160","decayModes":"β-","zp":"","halfLife":"34.5s","nn":"65","nuclearSpin":"5\/2+","daughterIsotopes":"Rh109","isotopicComposition":"Syn","atomicMass":"108.9132"},{"nuclideSymbol":"Ru110","decayEnergy":"2.810","decayModes":"β-","zp":"","halfLife":"14.6s","nn":"66","nuclearSpin":"0+","daughterIsotopes":"Rh110","isotopicComposition":"Syn","atomicMass":"109.914"},{"nuclideSymbol":"Ru111","decayEnergy":"5.500","decayModes":"β-","zp":"","halfLife":"2.12s","nn":"67","nuclearSpin":"","daughterIsotopes":"Rh111","isotopicComposition":"Syn","atomicMass":"110.918"},{"nuclideSymbol":"Ru112","decayEnergy":"3.670","decayModes":"β-","zp":"","halfLife":"1.75s","nn":"68","nuclearSpin":"0+","daughterIsotopes":"Rh112","isotopicComposition":"Syn","atomicMass":"111.919"},{"nuclideSymbol":"Ru113","decayEnergy":"6.600","decayModes":"β-","zp":"","halfLife":"0.8s","nn":"69","nuclearSpin":"","daughterIsotopes":"Rh113","isotopicComposition":"Syn","atomicMass":"112.923"},{"nuclideSymbol":"Ru114","decayEnergy":"4.800","decayModes":"β-","zp":"","halfLife":"0.53s","nn":"70","nuclearSpin":"0+","daughterIsotopes":"Rh114","isotopicComposition":"Syn","atomicMass":"113.924"},{"nuclideSymbol":"Ru115","decayEnergy":"7.600","decayModes":"β-","zp":"","halfLife":"0.4s","nn":"71","nuclearSpin":"","daughterIsotopes":"Rh115","isotopicComposition":"Syn","atomicMass":"114.928"},{"nuclideSymbol":"","decayEnergy":"0.700","decayModes":"β- + N","zp":"","halfLife":"0.4s","nn":"","nuclearSpin":"","daughterIsotopes":"Rh114","isotopicComposition":"","atomicMass":""},{"nuclideSymbol":"Ru116","decayEnergy":"","decayModes":"","zp":"","halfLife":">150ns","nn":"72","nuclearSpin":"0+","daughterIsotopes":"","isotopicComposition":"Syn","atomicMass":"115.93"},{"nuclideSymbol":"Ru117","decayEnergy":"","decayModes":"","zp":"","halfLife":">150ns","nn":"73","nuclearSpin":"","daughterIsotopes":"","isotopicComposition":"Syn","atomicMass":"116.935"},{"nuclideSymbol":"Ru118","decayEnergy":"","decayModes":"","zp":"","halfLife":">150ns","nn":"74","nuclearSpin":"0+","daughterIsotopes":"","isotopicComposition":"Syn","atomicMass":"117.937"}],"elasticModulusYoungs":"447","atomicMassFootnote":"g","incompatibilities":"","fillingOrbital":[{"4d":"7"}],"atomicRadius":"1.89","enthalpyOfVaporization":"567.8","heatOfVaporization":"595","hardnessScaleBrinell":"2160","group":"8","atomicNumber":44,"relativeGasDensity":"","ionizationPotentialThird":"28.47","crossSection":"3","electroChemicalEquivalent":"1.257","electronConfiguration":{"4p":"6","5s":"1","3p":"6","4s":"2","2p":"6","3s":"2","2s":"2","3d":"10","1s":"2","4d":"7"},"criticalTemperature":"","heatOfFusion":"24"}