{"hardnessScaleMohs":"2","opticalReflectivity":"","meltingPointFootnote":"(monoclinic)","conductivityElectrical":"0.000000000000000000000005","standardCondition":"Solid","crystalStructure":"Monoclinic","coefficientOfLinealThermalExpansion":"0.000006413","flammabilityClass":"","molarHeatCapacity":"22.75","numberOfNeutrons":"16","series":"Non Metal","vaporPressure":{"pa10":"135","pa100kFootnote":"","pa100Footnote":"","pa100":"176","pa1Footnote":"s","pa1":"102","pa1kFootnote":"","pa1k":"235","pa10kFootnote":"","pa10Footnote":"","pa10k":"318","pa100k":"444"},"casRegistryNumber":"7704-34-9","oxidationStates":"±2, 4, 6","lineSpectra":[{"intensity":"200","airWavelength":"4153.0640","spectrum":"S II"},{"intensity":"250","airWavelength":"4162.6650","spectrum":"S II"},{"intensity":"40","airWavelength":"4694.1300","spectrum":"S I"},{"intensity":"140","airWavelength":"5428.6670","spectrum":"S II"},{"intensity":"250","airWavelength":"5432.8150","spectrum":"S II"},{"intensity":"400","airWavelength":"5453.8280","spectrum":"S II"},{"intensity":"150","airWavelength":"5473.6200","spectrum":"S II"},{"intensity":"150","airWavelength":"5509.7180","spectrum":"S II"},{"intensity":"150","airWavelength":"5606.1510","spectrum":"S II"},{"intensity":"150","airWavelength":"5639.9720","spectrum":"S II"},{"intensity":"120","airWavelength":"5659.9850","spectrum":"S II"},{"intensity":"40","airWavelength":"6757.1600","spectrum":"S I"}],"numberOfElectrons":"16","magneticSusceptibility":"+14.9","atomicVolume":"15.5","abundanceCrust":"3.50x10²","boilingPoint":"444.60","discoveryYear":"Known to the ancients","electroNegativity":"2.58","meltingPoint":"119.6","elasticModulusBulk":"7.7","boilingPointFootnote":"(monoclinic)","ionizationPotentialSecond":"23.33","conductivityThermal":"0.00269","discoveryLocation":"?","descr":"Solid pale yellow non-metal.","elasticModulusRigidity":"","discoverer":"Known to the ancients","ionicRadius":"0.37","numberOfProtons":"16","abundanceSea":"9.05x10²","atomicMass":"32.065","ionizationPotentialFirst":"10.36","molarVolume":"15.5","hardnessScaleVickers":"","enthalpyOfAtomization":"278.7","density":"2.07","enthalpyOfFusion":"1.72","opticalRefractiveIndex":"1.00111","qualitativeSolubility":"insoluble in H₂0; soluble in ethanol, benzene, ethyl ether; solugle in CS₂","name":"Sulfer","specificHeat":"0.710","atomicMassUncertainty":5,"valenceElectronPotential":"160","covalentRadius":"1.02","electronWorkFunction":"","valenceElectrons":[{"3s":"2"},{"3p":"4"}],"atomicMassKnownAccurately":true,"period":"3","symbol":"S","nuclidesAndIsotopes":[{"nuclideSymbol":"S26","decayEnergy":"","decayModes":"","zp":"","halfLife":"","nn":"10","nuclearSpin":"0+","daughterIsotopes":"","isotopicComposition":"Syn","atomicMass":"26.028"},{"nuclideSymbol":"S27","decayEnergy":"18.260","decayModes":"ξ","zp":"","halfLife":"21ms","nn":"11","nuclearSpin":"","daughterIsotopes":"P27","isotopicComposition":"Syn","atomicMass":"27.019"},{"nuclideSymbol":"S28","decayEnergy":"9.170","decayModes":"ξ + P","zp":">0","halfLife":"125ms","nn":"12","nuclearSpin":"0+","daughterIsotopes":"Si27","isotopicComposition":"Syn","atomicMass":"28.004"},{"nuclideSymbol":"","decayEnergy":"11.230","decayModes":"ξ","zp":"","halfLife":"125ms","nn":"","nuclearSpin":"","daughterIsotopes":"P28","isotopicComposition":"","atomicMass":""},{"nuclideSymbol":"S29","decayEnergy":"13.790","decayModes":"ξ","zp":"","halfLife":"187ms","nn":"13","nuclearSpin":"5\/2+","daughterIsotopes":"P29","isotopicComposition":"Syn","atomicMass":"28.9966"},{"nuclideSymbol":"S30","decayEnergy":"6.138","decayModes":"ξ","zp":"","halfLife":"1.178s","nn":"14","nuclearSpin":"0+","daughterIsotopes":"P30","isotopicComposition":"Syn","atomicMass":"29.9849"},{"nuclideSymbol":"S31","decayEnergy":"5.396","decayModes":"ξ","zp":"","halfLife":"2.572s","nn":"15","nuclearSpin":"1\/2+","daughterIsotopes":"P31","isotopicComposition":"Syn","atomicMass":"30.9796"},{"nuclideSymbol":"S32","decayEnergy":"","decayModes":"","zp":"","halfLife":"Stable","nn":"16","nuclearSpin":"0+","daughterIsotopes":"","isotopicComposition":"95.02","atomicMass":"31.9721"},{"nuclideSymbol":"S33","decayEnergy":"","decayModes":"","zp":"","halfLife":"Stable","nn":"17","nuclearSpin":"3\/2+","daughterIsotopes":"","isotopicComposition":"0.75","atomicMass":"32.9715"},{"nuclideSymbol":"S34","decayEnergy":"","decayModes":"","zp":"","halfLife":"Stable","nn":"18","nuclearSpin":"0+","daughterIsotopes":"","isotopicComposition":"4.21","atomicMass":"33.9679"},{"nuclideSymbol":"S35","decayEnergy":"0.167","decayModes":"β-","zp":"","halfLife":"87.32d","nn":"19","nuclearSpin":"3\/2+","daughterIsotopes":"Cl35","isotopicComposition":"Syn","atomicMass":"34.969"},{"nuclideSymbol":"S36","decayEnergy":"","decayModes":"","zp":"","halfLife":"Stable","nn":"20","nuclearSpin":"0+","daughterIsotopes":"","isotopicComposition":"0.02","atomicMass":"35.9671"},{"nuclideSymbol":"S37","decayEnergy":"4.865","decayModes":"β-","zp":"","halfLife":"5.05m","nn":"21","nuclearSpin":"7\/2-","daughterIsotopes":"Cl37","isotopicComposition":"Syn","atomicMass":"36.9711"},{"nuclideSymbol":"S38","decayEnergy":"2.937","decayModes":"β-","zp":"","halfLife":"170.3m","nn":"22","nuclearSpin":"0+","daughterIsotopes":"Cl38","isotopicComposition":"Syn","atomicMass":"37.9712"},{"nuclideSymbol":"S39","decayEnergy":"6.640","decayModes":"β-","zp":"","halfLife":"11.5s","nn":"23","nuclearSpin":"5\/2-, 3\/2-, 7\/2-","daughterIsotopes":"Cl39","isotopicComposition":"Syn","atomicMass":"38.9751"},{"nuclideSymbol":"S40","decayEnergy":"4.710","decayModes":"β-","zp":"","halfLife":"8.8s","nn":"24","nuclearSpin":"0+","daughterIsotopes":"Cl40","isotopicComposition":"Syn","atomicMass":"39.975"},{"nuclideSymbol":"S41","nuclearSpin":"","decayModes":"","halfLife":">1us","nn":"25","daughterIsotopes":"","isotopicComposition":"Syn","atomicMass":"40.98"},{"nuclideSymbol":"S42","decayEnergy":"2.000","decayModes":"β- + N","zp":"<4","halfLife":"0.56s","nn":"26","nuclearSpin":"0+","daughterIsotopes":"Cl41","isotopicComposition":"Syn","atomicMass":"41.981"},{"nuclideSymbol":"","decayEnergy":"7.700","decayModes":"β-","zp":"","halfLife":"0.56s","nn":"","nuclearSpin":"","daughterIsotopes":"Cl42","isotopicComposition":"","atomicMass":""},{"nuclideSymbol":"S43","decayEnergy":"4.400","decayModes":"β- + N","zp":"40","halfLife":"220ms","nn":"27","nuclearSpin":"","daughterIsotopes":"Cl42","isotopicComposition":"Syn","atomicMass":"42.987"},{"nuclideSymbol":"","decayEnergy":"11.500","decayModes":"β-","zp":"","halfLife":"220ms","nn":"","nuclearSpin":"","daughterIsotopes":"Cl43","isotopicComposition":"","atomicMass":""},{"nuclideSymbol":"S44","decayEnergy":"5.100","decayModes":"β- + N","zp":"18","halfLife":"123ms","nn":"28","nuclearSpin":"0+","daughterIsotopes":"Cl43","isotopicComposition":"Syn","atomicMass":"43.988"},{"nuclideSymbol":"","decayEnergy":"9.100","decayModes":"β-","zp":"","halfLife":"123ms","nn":"","nuclearSpin":"","daughterIsotopes":"Cl44","isotopicComposition":"","atomicMass":""},{"nuclideSymbol":"S45","decayEnergy":"7.100","decayModes":"β- + N","zp":"54","halfLife":"82ms","nn":"29","nuclearSpin":"","daughterIsotopes":"Cl44","isotopicComposition":"Syn","atomicMass":"44.995"},{"nuclideSymbol":"","decayEnergy":"14.100","decayModes":"β-","zp":"","halfLife":"82ms","nn":"","nuclearSpin":"","daughterIsotopes":"Cl45","isotopicComposition":"","atomicMass":""},{"nuclideSymbol":"S46","decayEnergy":"","decayModes":"","zp":"","halfLife":">200ns","nn":"30","nuclearSpin":"0+","daughterIsotopes":"","isotopicComposition":"Syn","atomicMass":"45.999"},{"nuclideSymbol":"S47","decayEnergy":"","decayModes":"","zp":"","halfLife":">200ns","nn":"31","nuclearSpin":"","daughterIsotopes":"","isotopicComposition":"Syn","atomicMass":"47.008"},{"nuclideSymbol":"S48","decayEnergy":"","decayModes":"","zp":"","halfLife":">200ns","nn":"32","nuclearSpin":"0+","daughterIsotopes":"","isotopicComposition":"Syn","atomicMass":"48.013"},{"nuclideSymbol":"S49","decayEnergy":"","decayModes":"","zp":"","halfLife":"","nn":"33","nuclearSpin":"","daughterIsotopes":"","isotopicComposition":"Syn","atomicMass":"49.02"}],"elasticModulusYoungs":"","atomicMassFootnote":"g r","incompatibilities":"","fillingOrbital":[{"3p":"4"}],"atomicRadius":"1.09","enthalpyOfVaporization":"9.62","heatOfVaporization":"","hardnessScaleBrinell":"","group":"16","atomicNumber":16,"relativeGasDensity":"","ionizationPotentialThird":"34.83","crossSection":"0.51","electroChemicalEquivalent":"0.299","electronConfiguration":{"3p":"4","2p":"6","3s":"2","2s":"2","1s":"2"},"criticalTemperature":"1041","heatOfFusion":"1.7175"}