{"hardnessScaleMohs":"3","opticalReflectivity":"55","meltingPointFootnote":"","conductivityElectrical":"0.0288","standardCondition":"Solid","crystalStructure":"Rhombohedral","coefficientOfLinealThermalExpansion":"0.0000092","flammabilityClass":"Non-combustible solid (except as dust)","molarHeatCapacity":"25.23","numberOfNeutrons":"71","series":"Metal","vaporPressure":{"pa100k":"1585","pa100kFootnote":"","pa100Footnote":"","pa100":"738","pa1Footnote":"s","pa1":"534","pa1kFootnote":"","pa1k":"946","pa10kFootnote":"","pa10Footnote":"s","pa10k":"1218","pa10":"603"},"casRegistryNumber":"7440-36-0","oxidationStates":"±3, 5","lineSpectra":[{"intensity":"0","airWavelength":"0","spectrum":"TBD"}],"numberOfElectrons":"51","magneticSusceptibility":"-99","atomicVolume":"18.23","abundanceCrust":"2x10¹","boilingPoint":"1587","discoveryYear":"Known to the ancients","electroNegativity":"2.05","meltingPoint":"630.63","elasticModulusBulk":"42","boilingPointFootnote":"","ionizationPotentialSecond":"16.53","conductivityThermal":"0.243","discoveryLocation":"?","descr":"Hard brittle bluish-white metal.","elasticModulusRigidity":"20","discoverer":"Known to the ancients","ionicRadius":"0.76","numberOfProtons":"51","abundanceSea":"2.4x10⁻⁴","atomicMass":"121.760","molarVolume":"18.22","ionizationPotentialFirst":"8.641","hardnessScaleVickers":"","enthalpyOfAtomization":"263.6","density":"6.684","enthalpyOfFusion":"19.87","opticalRefractiveIndex":"","qualitativeSolubility":"insoluble in diluted acid","name":"Antimony","specificHeat":"0.207","atomicMassUncertainty":1,"valenceElectronPotential":"57","covalentRadius":"1.4","hardnessScaleBrinnel":"294","electronWorkFunction":"4.55","valenceElectrons":[{"5s":"2"},{"5p":"3"}],"atomicMassKnownAccurately":true,"period":"5","symbol":"Sb","nuclidesAndIsotopes":[{"nuclideSymbol":"","decayEnergy":"","decayModes":"","zp":"","halfLife":"","nn":"","nuclearSpin":"","daughterIsotopes":"","isotopicComposition":"","atomicMass":""}],"elasticModulusYoungs":"55","atomicMassFootnote":"g","incompatibilities":"Strong oxidizers, acids, halogenated acids","fillingOrbital":[{"5p":"3"}],"atomicRadius":"1.53","enthalpyOfVaporization":"67.9","heatOfVaporization":"77.14","group":"15","atomicNumber":51,"relativeGasDensity":"","ionizationPotentialThird":"25.3","crossSection":"5","electroChemicalEquivalent":"1.5142","electronConfiguration":{"4p":"6","5s":"2","3p":"6","4s":"2","2p":"6","3s":"2","2s":"2","3d":"10","1s":"2","4d":"10","5p":"3"},"criticalTemperature":"","heatOfFusion":"19.87"}