{"hardnessScaleMohs":"","opticalReflectivity":"","meltingPointFootnote":"","conductivityElectrical":"0.0177","standardCondition":"Solid","crystalStructure":"Hexagonal","coefficientOfLinealThermalExpansion":"0.000012","flammabilityClass":"","molarHeatCapacity":"25.62","numberOfNeutrons":"24","series":"Transition Metal","vaporPressure":{"pa10":"1531","pa100kFootnote":"i","pa100Footnote":"i","pa100":"1733","pa1Footnote":"s","pa1":"1372","pa1kFootnote":"i","pa1k":"1993","pa10kFootnote":"i","pa10Footnote":"s","pa10k":"2340","pa100k":"2828"},"casRegistryNumber":"7440-20-2","oxidationStates":"3","lineSpectra":[{"intensity":"900","airWavelength":"4020.3870","spectrum":"Sc I"},{"intensity":"900","airWavelength":"4023.6780","spectrum":"Sc I"},{"intensity":"10","airWavelength":"4030.6220","spectrum":"Sc I"},{"intensity":"10","airWavelength":"4043.8030","spectrum":"Sc I"},{"intensity":"120","airWavelength":"4047.7970","spectrum":"Sc I"},{"intensity":"250","airWavelength":"4054.5440","spectrum":"Sc I"},{"intensity":"10","airWavelength":"4056.5930","spectrum":"Sc I"},{"intensity":"100","airWavelength":"4068.6600","spectrum":"Sc III"},{"intensity":"250","airWavelength":"4082.3870","spectrum":"Sc I"},{"intensity":"15","airWavelength":"4087.1500","spectrum":"Sc I"},{"intensity":"20","airWavelength":"4132.9840","spectrum":"Sc I"},{"intensity":"25","airWavelength":"4140.2720","spectrum":"Sc I"},{"intensity":"30","airWavelength":"4152.3410","spectrum":"Sc I"},{"intensity":"50","airWavelength":"4165.1870","spectrum":"Sc I"},{"intensity":"15","airWavelength":"4238.0530","spectrum":"Sc I"},{"intensity":"500","airWavelength":"4246.8200","spectrum":"Sc II"},{"intensity":"150","airWavelength":"4314.0820","spectrum":"Sc II"},{"intensity":"120","airWavelength":"4320.7450","spectrum":"Sc II"},{"intensity":"90","airWavelength":"4324.9980","spectrum":"Sc II"},{"intensity":"70","airWavelength":"4374.4620","spectrum":"Sc II"},{"intensity":"20","airWavelength":"4729.2090","spectrum":"Sc I"},{"intensity":"25","airWavelength":"4734.1090","spectrum":"Sc I"},{"intensity":"30","airWavelength":"4737.6470","spectrum":"Sc I"},{"intensity":"30","airWavelength":"4741.0240","spectrum":"Sc I"},{"intensity":"50","airWavelength":"4743.8210","spectrum":"Sc I"},{"intensity":"10","airWavelength":"4779.3540","spectrum":"Sc I"},{"intensity":"11","airWavelength":"5064.3060","spectrum":"Sc I"},{"intensity":"25","airWavelength":"5070.2570","spectrum":"Sc I"},{"intensity":"11","airWavelength":"5075.8200","spectrum":"Sc I"},{"intensity":"90","airWavelength":"5081.5610","spectrum":"Sc I"},{"intensity":"50","airWavelength":"5083.7210","spectrum":"Sc I"},{"intensity":"50","airWavelength":"5085.5490","spectrum":"Sc I"},{"intensity":"15","airWavelength":"5087.1230","spectrum":"Sc I"},{"intensity":"12","airWavelength":"5089.9300","spectrum":"Sc I"},{"intensity":"15","airWavelength":"5096.7210","spectrum":"Sc I"},{"intensity":"25","airWavelength":"5099.2740","spectrum":"Sc I"},{"intensity":"15","airWavelength":"5101.1190","spectrum":"Sc I"},{"intensity":"14","airWavelength":"5116.6480","spectrum":"Sc I"},{"intensity":"15","airWavelength":"5210.5470","spectrum":"Sc I"},{"intensity":"12","airWavelength":"5219.6340","spectrum":"Sc I"},{"intensity":"12","airWavelength":"5258.3640","spectrum":"Sc I"},{"intensity":"15","airWavelength":"5349.3420","spectrum":"Sc I"},{"intensity":"25","airWavelength":"5356.0970","spectrum":"Sc I"},{"intensity":"12","airWavelength":"5375.3730","spectrum":"Sc I"},{"intensity":"15","airWavelength":"5392.0580","spectrum":"Sc I"},{"intensity":"12","airWavelength":"5446.1950","spectrum":"Sc I"},{"intensity":"30","airWavelength":"5482.0120","spectrum":"Sc I"},{"intensity":"25","airWavelength":"5484.6280","spectrum":"Sc I"},{"intensity":"25","airWavelength":"5514.2300","spectrum":"Sc I"},{"intensity":"30","airWavelength":"5520.5190","spectrum":"Sc I"},{"intensity":"25","airWavelength":"5526.7850","spectrum":"Sc II"},{"intensity":"70","airWavelength":"5671.8280","spectrum":"Sc I"},{"intensity":"50","airWavelength":"5686.8560","spectrum":"Sc I"},{"intensity":"50","airWavelength":"5700.1860","spectrum":"Sc I"},{"intensity":"10","airWavelength":"5706.8200","spectrum":"Sc IV"},{"intensity":"40","airWavelength":"5711.7930","spectrum":"Sc I"},{"intensity":"10","airWavelength":"5717.3140","spectrum":"Sc I"},{"intensity":"14","airWavelength":"5771.6300","spectrum":"Sc IV"},{"intensity":"25","airWavelength":"6210.6600","spectrum":"Sc I"},{"intensity":"14","airWavelength":"6239.8000","spectrum":"Sc I"},{"intensity":"80","airWavelength":"6256.0100","spectrum":"Sc III"},{"intensity":"11","airWavelength":"6258.9000","spectrum":"Sc I"},{"intensity":"30","airWavelength":"6305.6500","spectrum":"Sc I"}],"numberOfElectrons":"21","magneticSusceptibility":"+295.2","atomicVolume":"15","abundanceCrust":"2.2x10¹","boilingPoint":"2836","discoveryYear":"1879","electroNegativity":"1.36","meltingPoint":"1541","elasticModulusBulk":"57","boilingPointFootnote":"","ionizationPotentialSecond":"12.8","conductivityThermal":"0.158","discoveryLocation":"Sweden","descr":"Soft silvery white metal.","elasticModulusRigidity":"29","discoverer":"Lars Nilson","ionicRadius":"0.745","numberOfProtons":"21","abundanceSea":"6x10⁻⁷","atomicMass":"44.955910","ionizationPotentialFirst":"6.54","molarVolume":"15.04","hardnessScaleVickers":"","enthalpyOfAtomization":"343","density":"2.99","enthalpyOfFusion":"14.1","opticalRefractiveIndex":"","qualitativeSolubility":"","name":"Scandium","specificHeat":"0.568","atomicMassUncertainty":8,"valenceElectronPotential":"58","covalentRadius":"1.44","electronWorkFunction":"3.5","valenceElectrons":[{"3d":"1"},{"4s":"2"}],"atomicMassKnownAccurately":true,"period":"4","symbol":"Sc","nuclidesAndIsotopes":[{"nuclideSymbol":"Sc36","decayEnergy":"","decayModes":"","zp":"","halfLife":"","nn":"15","nuclearSpin":"","daughterIsotopes":"","isotopicComposition":"Syn","atomicMass":"36.015"},{"nuclideSymbol":"Sc37","decayEnergy":"","decayModes":"","zp":"","halfLife":"","nn":"16","nuclearSpin":"","daughterIsotopes":"","isotopicComposition":"Syn","atomicMass":"37.003"},{"nuclideSymbol":"Sc38","decayEnergy":"","decayModes":"","zp":"","halfLife":"","nn":"17","nuclearSpin":"","daughterIsotopes":"","isotopicComposition":"Syn","atomicMass":"37.995"},{"nuclideSymbol":"Sc39","decayEnergy":"","decayModes":"","zp":"","halfLife":"","nn":"18","nuclearSpin":"","daughterIsotopes":"","isotopicComposition":"Syn","atomicMass":"38.9848"},{"nuclideSymbol":"Sc40","decayEnergy":"5.991","decayModes":"ξ + P","zp":"0.44","halfLife":"182.3ms","nn":"19","nuclearSpin":"4-","daughterIsotopes":"K39","isotopicComposition":"Syn","atomicMass":"39.978"},{"nuclideSymbol":"","decayEnergy":"7.279","decayModes":"ξ + α","zp":"0.02","halfLife":"182.3ms","nn":"","nuclearSpin":"","daughterIsotopes":"Ar36","isotopicComposition":"","atomicMass":""},{"nuclideSymbol":"","decayEnergy":"14.320","decayModes":"ξ","zp":"","halfLife":"182.3ms","nn":"","nuclearSpin":"","daughterIsotopes":"Ca40","isotopicComposition":"","atomicMass":""},{"nuclideSymbol":"Sc41","decayEnergy":"6.495","decayModes":"ξ","zp":"","halfLife":"596.3ms","nn":"20","nuclearSpin":"7\/2-","daughterIsotopes":"Ca41","isotopicComposition":"Syn","atomicMass":"40.9693"},{"nuclideSymbol":"Sc42","decayEnergy":"6.426","decayModes":"ξ","zp":"","halfLife":"681.3ms","nn":"21","nuclearSpin":"0+","daughterIsotopes":"Ca42","isotopicComposition":"Syn","atomicMass":"41.9655"},{"nuclideSymbol":"MS","decayEnergy":"7.042","decayModes":"ξ","zp":"","halfLife":"61.7s","nn":"","nuclearSpin":"5+, 6+","daughterIsotopes":"Ca42","isotopicComposition":"Syn","atomicMass":"0.616MeV"},{"nuclideSymbol":"Sc43","decayEnergy":"2.221","decayModes":"ξ","zp":"","halfLife":"3.891h","nn":"22","nuclearSpin":"7\/2-","daughterIsotopes":"Ca43","isotopicComposition":"Syn","atomicMass":"42.9612"},{"nuclideSymbol":"Sc44","decayEnergy":"3.653","decayModes":"ξ","zp":"","halfLife":"3.927h","nn":"23","nuclearSpin":"2+","daughterIsotopes":"Ca44","isotopicComposition":"Syn","atomicMass":"43.9594"},{"nuclideSymbol":"MS","decayEnergy":"0.271","decayModes":"IT","zp":"98.8","halfLife":"58.6h","nn":"","nuclearSpin":"6+","daughterIsotopes":"","isotopicComposition":"Syn","atomicMass":"0.271MeV"},{"nuclideSymbol":"","decayEnergy":"3.924","decayModes":"ξ","zp":"1.2","halfLife":"58.6h","nn":"","nuclearSpin":"","daughterIsotopes":"Ca44","isotopicComposition":"","atomicMass":""},{"nuclideSymbol":"Sc45","decayEnergy":"","decayModes":"","zp":"","halfLife":"Stable","nn":"24","nuclearSpin":"7\/2-","daughterIsotopes":"","isotopicComposition":"100","atomicMass":"44.9559"},{"nuclideSymbol":"MS","decayEnergy":"0.012","decayModes":"IT","zp":"","halfLife":"318ms","nn":"","nuclearSpin":"3\/2+","daughterIsotopes":"","isotopicComposition":"Syn","atomicMass":"0.012MeV"},{"nuclideSymbol":"Sc46","decayEnergy":"2.367","decayModes":"β-","zp":"","halfLife":"83.79d","nn":"25","nuclearSpin":"4+","daughterIsotopes":"Ti46","isotopicComposition":"Syn","atomicMass":"45.9552"},{"nuclideSymbol":"MS","decayEnergy":"0.143","decayModes":"IT","zp":"","halfLife":"18.75s","nn":"","nuclearSpin":"1-","daughterIsotopes":"","isotopicComposition":"Syn","atomicMass":"0.143MeV"},{"nuclideSymbol":"Sc47","decayEnergy":"0.600","decayModes":"β-","zp":"","halfLife":"3.3492d","nn":"26","nuclearSpin":"7\/2-","daughterIsotopes":"Ti47","isotopicComposition":"Syn","atomicMass":"46.9524"},{"nuclideSymbol":"Sc48","decayEnergy":"3.994","decayModes":"β-","zp":"","halfLife":"43.67h","nn":"27","nuclearSpin":"6+","daughterIsotopes":"Ti48","isotopicComposition":"Syn","atomicMass":"47.9522"},{"nuclideSymbol":"Sc49","decayEnergy":"2.006","decayModes":"β-","zp":"","halfLife":"57.2m","nn":"28","nuclearSpin":"7\/2-","daughterIsotopes":"Ti49","isotopicComposition":"Syn","atomicMass":"48.95"},{"nuclideSymbol":"Sc50","decayEnergy":"6.888","decayModes":"β-","zp":"","halfLife":"102.5s","nn":"29","nuclearSpin":"5+","daughterIsotopes":"Ti50","isotopicComposition":"Syn","atomicMass":"49.9522"},{"nuclideSymbol":"MS","decayEnergy":"0.257","decayModes":"IT","zp":"97.5","halfLife":"0.35s","nn":"","nuclearSpin":"2+, 3+","daughterIsotopes":"","isotopicComposition":"Syn","atomicMass":"0.257MeV"},{"nuclideSymbol":"","decayEnergy":"7.145","decayModes":"β-","zp":"<2.5","halfLife":"0.35s","nn":"","nuclearSpin":"","daughterIsotopes":"Ti50","isotopicComposition":"","atomicMass":""},{"nuclideSymbol":"Sc51","decayEnergy":"6.508","decayModes":"β-","zp":"","halfLife":"12.4s","nn":"30","nuclearSpin":"7\/2-","daughterIsotopes":"Ti51","isotopicComposition":"Syn","atomicMass":"50.9536"},{"nuclideSymbol":"Sc52","decayEnergy":"9.010","decayModes":"β-","zp":"","halfLife":"8.2s","nn":"31","nuclearSpin":"3+","daughterIsotopes":"Ti52","isotopicComposition":"Syn","atomicMass":"51.957"},{"nuclideSymbol":"Sc53","decayEnergy":"","decayModes":"","zp":"","halfLife":">1us","nn":"32","nuclearSpin":"","daughterIsotopes":"","isotopicComposition":"Syn","atomicMass":"52.959"},{"nuclideSymbol":"Sc54","decayEnergy":"11.300","decayModes":"β-","zp":"","halfLife":">1us","nn":"33","nuclearSpin":"","daughterIsotopes":"Ti54","isotopicComposition":"Syn","atomicMass":"53.963"},{"nuclideSymbol":"Sc55","decayEnergy":"","decayModes":"","zp":"","halfLife":">1us","nn":"34","nuclearSpin":"","daughterIsotopes":"","isotopicComposition":"Syn","atomicMass":"54.97"},{"nuclideSymbol":"Sc56","decayEnergy":"","decayModes":"","zp":"","halfLife":"","nn":"35","nuclearSpin":"3+","daughterIsotopes":"","isotopicComposition":"Syn","atomicMass":"55.973"},{"nuclideSymbol":"Sc57","decayEnergy":"","decayModes":"","zp":"","halfLife":"","nn":"36","nuclearSpin":"7\/2-","daughterIsotopes":"","isotopicComposition":"Syn","atomicMass":"56.977"},{"nuclideSymbol":"Sc58","decayEnergy":"","decayModes":"","zp":"","halfLife":"","nn":"37","nuclearSpin":"3+","daughterIsotopes":"","isotopicComposition":"Syn","atomicMass":"57.983"},{"nuclideSymbol":"Sc59","decayEnergy":"","decayModes":"","zp":"","halfLife":"","nn":"38","nuclearSpin":"","daughterIsotopes":"","isotopicComposition":"Syn","atomicMass":"58.988"}],"elasticModulusYoungs":"74","atomicMassFootnote":"","incompatibilities":"","fillingOrbital":[{"3d":"1"}],"atomicRadius":"2.09","enthalpyOfVaporization":"314.2","heatOfVaporization":"314.2","hardnessScaleBrinell":"750","group":"3","atomicNumber":21,"relativeGasDensity":"","ionizationPotentialThird":"24.76","crossSection":"25","electroChemicalEquivalent":"0.59914","electronConfiguration":{"3p":"6","4s":"2","2p":"6","3s":"2","2s":"2","3d":"1","1s":"2"},"criticalTemperature":"","heatOfFusion":"14.1"}