{"hardnessScaleMohs":"2","opticalReflectivity":"","meltingPointFootnote":"(gray)","conductivityElectrical":"0.000000000001","standardCondition":"Solid","crystalStructure":"Hexagonal","coefficientOfLinealThermalExpansion":"","flammabilityClass":"Combustable Solid","molarHeatCapacity":"25.363","numberOfNeutrons":"45","series":"Non Metal","vaporPressure":{"pa10":"279","pa100kFootnote":"","pa100Footnote":"","pa100":"344","pa1Footnote":"","pa1":"227","pa1kFootnote":"","pa1k":"431","pa10kFootnote":"","pa10Footnote":"","pa10k":"540","pa100k":"685"},"casRegistryNumber":"7440-49-2","oxidationStates":"±2, 4, 6","lineSpectra":[{"intensity":"800","airWavelength":"4175.2800","spectrum":"Se II"},{"intensity":"1000","airWavelength":"4180.9000","spectrum":"Se II"},{"intensity":"600","airWavelength":"4730.7800","spectrum":"Se I"},{"intensity":"400","airWavelength":"4739.0300","spectrum":"Se I"},{"intensity":"300","airWavelength":"4742.2500","spectrum":"Se I"},{"intensity":"800","airWavelength":"4844.9410","spectrum":"Se II"},{"intensity":"1000","airWavelength":"5227.5330","spectrum":"Se II"},{"intensity":"800","airWavelength":"5305.3470","spectrum":"Se II"},{"intensity":"1000","airWavelength":"6055.8400","spectrum":"Se II"},{"intensity":"800","airWavelength":"6444.2900","spectrum":"Se II"}],"numberOfElectrons":"34","magneticSusceptibility":"-25","atomicVolume":"16.45","abundanceCrust":"5x10⁻²","boilingPoint":"685","discoveryYear":"1817","electroNegativity":"2.55","meltingPoint":"220.5","elasticModulusBulk":"8.3","boilingPointFootnote":"(gray)","ionizationPotentialSecond":"21.19","conductivityThermal":"0.0204","discoveryLocation":"Sweden","descr":"Dark gray lustrous rods or dark red crystals of non-metal","elasticModulusRigidity":"3.7","discoverer":"Jöns Jakob Berzelius","ionicRadius":"0.5","numberOfProtons":"34","abundanceSea":"2x10⁻⁴","atomicMass":"78.96","ionizationPotentialFirst":"9.752","molarVolume":"16.42","hardnessScaleVickers":"","enthalpyOfAtomization":"205.9","density":"4.39","enthalpyOfFusion":"6.69","opticalRefractiveIndex":"1.000895","qualitativeSolubility":"insoluble in H₂0, ethanol; soluble in ethyl ether","name":"Selenium","specificHeat":"0.321","atomicMassUncertainty":3,"valenceElectronPotential":"120","covalentRadius":"1.16","electronWorkFunction":"5.9","valenceElectrons":[{"4s":"2"},{"4p":"4"}],"atomicMassKnownAccurately":true,"period":"4","symbol":"Se","nuclidesAndIsotopes":[{"nuclideSymbol":"Se65","decayEnergy":"14.100","decayModes":"ξ","zp":"","halfLife":"<50ms","nn":"31","nuclearSpin":"","daughterIsotopes":"As65","isotopicComposition":"Syn","atomicMass":"64.965"},{"nuclideSymbol":"Se66","decayEnergy":"","decayModes":"","zp":"","halfLife":"","nn":"32","nuclearSpin":"0+","daughterIsotopes":"","isotopicComposition":"Syn","atomicMass":"65.955"},{"nuclideSymbol":"Se67","decayEnergy":"7.840","decayModes":"ξ + P","zp":"0.5","halfLife":"60ms","nn":"33","nuclearSpin":"","daughterIsotopes":"Ge66","isotopicComposition":"Syn","atomicMass":"66.95"},{"nuclideSymbol":"","decayEnergy":"10.150","decayModes":"ξ","zp":"","halfLife":"60ms","nn":"","nuclearSpin":"","daughterIsotopes":"As67","isotopicComposition":"","atomicMass":""},{"nuclideSymbol":"Se68","decayEnergy":"4.700","decayModes":"ξ","zp":"","halfLife":"35.5s","nn":"34","nuclearSpin":"0+","daughterIsotopes":"As68","isotopicComposition":"Syn","atomicMass":"67.942"},{"nuclideSymbol":"Se69","decayEnergy":"3.390","decayModes":"ξ + P","zp":"0.05","halfLife":"27.4s","nn":"35","nuclearSpin":"3\/2-","daughterIsotopes":"Ge68","isotopicComposition":"Syn","atomicMass":"68.9396"},{"nuclideSymbol":"","decayEnergy":"6.780","decayModes":"ξ","zp":"","halfLife":"27.4s","nn":"","nuclearSpin":"","daughterIsotopes":"As69","isotopicComposition":"","atomicMass":""},{"nuclideSymbol":"Se70","decayEnergy":"2.400","decayModes":"ξ","zp":"","halfLife":"41.1m","nn":"36","nuclearSpin":"0+","daughterIsotopes":"As70","isotopicComposition":"Syn","atomicMass":"69.934"},{"nuclideSymbol":"Se71","decayEnergy":"4.800","decayModes":"ξ","zp":"","halfLife":"4.74m","nn":"37","nuclearSpin":"5\/2-, 3\/2-","daughterIsotopes":"As71","isotopicComposition":"Syn","atomicMass":"70.932"},{"nuclideSymbol":"Se72","decayEnergy":"0.335","decayModes":"ξ","zp":"","halfLife":"8.4d","nn":"38","nuclearSpin":"0+","daughterIsotopes":"As72","isotopicComposition":"Syn","atomicMass":"71.9271"},{"nuclideSymbol":"Se73","decayEnergy":"2.740","decayModes":"ξ","zp":"","halfLife":"7.15h","nn":"39","nuclearSpin":"9\/2+","daughterIsotopes":"As73","isotopicComposition":"Syn","atomicMass":"72.9268"},{"nuclideSymbol":"MS","decayEnergy":"0.026","decayModes":"IT","zp":"72.6","halfLife":"39.8m","nn":"","nuclearSpin":"3\/2-","daughterIsotopes":"","isotopicComposition":"Syn","atomicMass":"0.026MeV"},{"nuclideSymbol":"","decayEnergy":"2.766","decayModes":"ξ","zp":"27.4","halfLife":"39.8m","nn":"","nuclearSpin":"","daughterIsotopes":"As73","isotopicComposition":"","atomicMass":""},{"nuclideSymbol":"Se74","decayEnergy":"","decayModes":"","zp":"","halfLife":"Stable","nn":"40","nuclearSpin":"0+","daughterIsotopes":"","isotopicComposition":"0.89","atomicMass":"73.9225"},{"nuclideSymbol":"Se75","decayEnergy":"0.864","decayModes":"ξ","zp":"","halfLife":"119.779d","nn":"41","nuclearSpin":"5\/2+","daughterIsotopes":"As75","isotopicComposition":"Syn","atomicMass":"74.9225"},{"nuclideSymbol":"Se76","decayEnergy":"","decayModes":"","zp":"","halfLife":"Stable","nn":"42","nuclearSpin":"0+","daughterIsotopes":"","isotopicComposition":"9.36","atomicMass":"75.9192"},{"nuclideSymbol":"Se77","decayEnergy":"","decayModes":"","zp":"","halfLife":"Stable","nn":"43","nuclearSpin":"1\/2-","daughterIsotopes":"","isotopicComposition":"7.63","atomicMass":"76.9199"},{"nuclideSymbol":"MS","decayEnergy":"0.162","decayModes":"IT","zp":"","halfLife":"17.36s","nn":"","nuclearSpin":"7\/2+","daughterIsotopes":"","isotopicComposition":"Syn","atomicMass":"0.161MeV"},{"nuclideSymbol":"Se78","nuclearSpin":"0+","decayModes":"","halfLife":"Stable","nn":"44","daughterIsotopes":"","isotopicComposition":"23.78","atomicMass":"77.9173"},{"nuclideSymbol":"Se79","decayEnergy":"0.151","decayModes":"β-","zp":"","halfLife":"1.13E⁶y","nn":"45","nuclearSpin":"7\/2+","daughterIsotopes":"Br79","isotopicComposition":"Syn","atomicMass":"78.9185"},{"nuclideSymbol":"MS","decayEnergy":"0.096","decayModes":"IT","zp":"99.94","halfLife":"3.92m","nn":"","nuclearSpin":"1\/2-","daughterIsotopes":"","isotopicComposition":"Syn","atomicMass":"0.096MeV"},{"nuclideSymbol":"","decayEnergy":"0.247","decayModes":"β-","zp":"0.06","halfLife":"3.92m","nn":"","nuclearSpin":"","daughterIsotopes":"Br79","isotopicComposition":"","atomicMass":""},{"nuclideSymbol":"Se80","decayEnergy":"","decayModes":"","zp":"","halfLife":"Stable","nn":"46","nuclearSpin":"0+","daughterIsotopes":"","isotopicComposition":"49.61","atomicMass":"79.9165"},{"nuclideSymbol":"Se81","decayEnergy":"1.585","decayModes":"β-","zp":"","halfLife":"18.45m","nn":"47","nuclearSpin":"1\/2-","daughterIsotopes":"Br81","isotopicComposition":"Syn","atomicMass":"80.918"},{"nuclideSymbol":"MS","decayEnergy":"0.103","decayModes":"IT","zp":"99.95","halfLife":"57.28m","nn":"","nuclearSpin":"7\/2+","daughterIsotopes":"","isotopicComposition":"Syn","atomicMass":"0.103MeV"},{"nuclideSymbol":"","decayEnergy":"1.688","decayModes":"β-","zp":"0.05","halfLife":"57.28m","nn":"","nuclearSpin":"","daughterIsotopes":"Br81","isotopicComposition":"","atomicMass":""},{"nuclideSymbol":"Se82","decayEnergy":"2.995","decayModes":"β-","zp":"","halfLife":"1.08E²⁰y","nn":"48","nuclearSpin":"0+","daughterIsotopes":"Kr82","isotopicComposition":"8.73","atomicMass":"81.9167"},{"nuclideSymbol":"Se83","decayEnergy":"3.668","decayModes":"β-","zp":"","halfLife":"22.3m","nn":"49","nuclearSpin":"9\/2+","daughterIsotopes":"Br83","isotopicComposition":"Syn","atomicMass":"82.9191"},{"nuclideSymbol":"MS","decayEnergy":"3.896","decayModes":"β-","zp":"","halfLife":"70.1s","nn":"","nuclearSpin":"1\/2-","daughterIsotopes":"Br83","isotopicComposition":"Syn","atomicMass":"0.228MeV"},{"nuclideSymbol":"Se84","decayEnergy":"1.830","decayModes":"β-","zp":"","halfLife":"3.1m","nn":"50","nuclearSpin":"0+","daughterIsotopes":"Br84","isotopicComposition":"Syn","atomicMass":"83.9185"},{"nuclideSymbol":"Se85","decayEnergy":"6.182","decayModes":"β-","zp":"","halfLife":"31.7s","nn":"51","nuclearSpin":"5\/2+","daughterIsotopes":"Br85","isotopicComposition":"Syn","atomicMass":"84.9222"},{"nuclideSymbol":"Se86","decayEnergy":"5.099","decayModes":"β-","zp":"","halfLife":"15.3s","nn":"52","nuclearSpin":"0+","daughterIsotopes":"Br86","isotopicComposition":"Syn","atomicMass":"85.9243"},{"nuclideSymbol":"Se87","decayEnergy":"0.990","decayModes":"β- + N","zp":"0.36","halfLife":"5.29s","nn":"53","nuclearSpin":"5\/2+","daughterIsotopes":"Br86","isotopicComposition":"Syn","atomicMass":"86.9285"},{"nuclideSymbol":"","decayEnergy":"7.280","decayModes":"β-","zp":"","halfLife":"5.29s","nn":"","nuclearSpin":"","daughterIsotopes":"Br87","isotopicComposition":"","atomicMass":""},{"nuclideSymbol":"Se88","decayEnergy":"1.910","decayModes":"β- + N","zp":"0.99","halfLife":"1.53s","nn":"54","nuclearSpin":"0+","daughterIsotopes":"Br87","isotopicComposition":"Syn","atomicMass":"87.9314"},{"nuclideSymbol":"","decayEnergy":"6.850","decayModes":"β-","zp":"","halfLife":"1.53s","nn":"","nuclearSpin":"","daughterIsotopes":"Br88","isotopicComposition":"","atomicMass":""},{"nuclideSymbol":"Se89","decayEnergy":"3.100","decayModes":"β- + N","zp":"7.8","halfLife":"0.41s","nn":"55","nuclearSpin":"5\/2+","daughterIsotopes":"Br88","isotopicComposition":"Syn","atomicMass":"88.936"},{"nuclideSymbol":"","decayEnergy":"9.000","decayModes":"β-","zp":"","halfLife":"0.41s","nn":"","nuclearSpin":"","daughterIsotopes":"Br89","isotopicComposition":"","atomicMass":""},{"nuclideSymbol":"Se90","nuclearSpin":"0+","decayModes":"","halfLife":">150ns","nn":"56","daughterIsotopes":"","isotopicComposition":"Syn","atomicMass":"89.939"},{"nuclideSymbol":"Se91","decayEnergy":"5.700","decayModes":"β- + N","zp":"21","halfLife":"0.27s","nn":"57","nuclearSpin":"","daughterIsotopes":"Br90","isotopicComposition":"Syn","atomicMass":"90.945"},{"nuclideSymbol":"","decayEnergy":"10.700","decayModes":"β-","zp":"","halfLife":"0.27s","nn":"","nuclearSpin":"","daughterIsotopes":"Br91","isotopicComposition":"","atomicMass":""},{"nuclideSymbol":"Se92","decayEnergy":"","decayModes":"β-","zp":"","halfLife":"","nn":"58","nuclearSpin":"0+","daughterIsotopes":"","isotopicComposition":"Syn","atomicMass":"91.949"},{"nuclideSymbol":"Se93","decayEnergy":"","decayModes":"β-","zp":"","halfLife":"","nn":"59","nuclearSpin":"1\/2+","daughterIsotopes":"","isotopicComposition":"Syn","atomicMass":""},{"nuclideSymbol":"Se94","decayEnergy":"","decayModes":"β-","zp":"","halfLife":"","nn":"60","nuclearSpin":"0+","daughterIsotopes":"","isotopicComposition":"Syn","atomicMass":""}],"elasticModulusYoungs":"10","atomicMassFootnote":"r","incompatibilities":"Acids, strong oxidizers, chromium trioxide, potassium bromate, cadmium","fillingOrbital":[{"4p":"4"}],"atomicRadius":"1.22","enthalpyOfVaporization":"26.3","heatOfVaporization":"37.7","hardnessScaleBrinell":"736","group":"16","atomicNumber":34,"relativeGasDensity":"","ionizationPotentialThird":"30.82","crossSection":"12.2","electroChemicalEquivalent":"0.7365","electronConfiguration":{"4p":"4","3p":"6","4s":"2","2p":"6","3s":"2","2s":"2","3d":"10","1s":"2"},"criticalTemperature":"","heatOfFusion":"6.694"}