{"hardnessScaleMohs":"","opticalReflectivity":"","meltingPointFootnote":"","conductivityElectrical":"","standardCondition":"Synthetic","crystalStructure":"Unknown","coefficientOfLinealThermalExpansion":"","flammabilityClass":"","molarHeatCapacity":"","numberOfNeutrons":"157","series":"Transactinide","vaporPressure":{"pa100k":"","pa100kFootnote":"","pa100Footnote":"","pa100":"","pa1Footnote":"","pa1":"","pa1kFootnote":"","pa1k":"","pa10kFootnote":"","pa10Footnote":"","pa10k":"","pa10":""},"casRegistryNumber":"54038-81-2","oxidationStates":"","lineSpectra":[{"intensity":"0","airWavelength":"0","spectrum":"TBD"}],"numberOfElectrons":"106","magneticSusceptibility":"","atomicVolume":"","abundanceCrust":"","boilingPoint":"","discoveryYear":"1974","electroNegativity":"","meltingPoint":"","elasticModulusBulk":"","boilingPointFootnote":"","ionizationPotentialSecond":"","conductivityThermal":"","discoveryLocation":"Dubna, USSR \/ Berkeley C","descr":"Man made radioactive element.","elasticModulusRigidity":"","discoverer":"Joint Institute for Nuclear Research and Lawrence Berkeley and Livermore Laboratories","ionicRadius":"","numberOfProtons":"106","abundanceSea":"","atomicMass":"266.1219","molarVolume":"","ionizationPotentialFirst":"","hardnessScaleVickers":"","enthalpyOfAtomization":"","density":"","enthalpyOfFusion":"","opticalRefractiveIndex":"","qualitativeSolubility":"","name":"Seaborgium","specificHeat":"","valenceElectronPotential":"","covalentRadius":"","electronWorkFunction":"","valenceElectrons":[{"1s":"1"}],"atomicMassKnownAccurately":false,"period":"7","symbol":"Sg","nuclidesAndIsotopes":[{"nuclideSymbol":"","decayEnergy":"","decayModes":"","zp":"","halfLife":"","nn":"","nuclearSpin":"","daughterIsotopes":"","isotopicComposition":"","atomicMass":""}],"elasticModulusYoungs":"","atomicMassFootnote":"a","incompatibilities":"","fillingOrbital":[{"1s":"1"}],"atomicRadius":"","enthalpyOfVaporization":"","heatOfVaporization":"","hardnessScaleBrinell":"","group":"6","atomicNumber":106,"relativeGasDensity":"","ionizationPotentialThird":"","crossSection":"","electroChemicalEquivalent":"","electronConfiguration":{"3d":"10","5s":"2","4s":"2","5f":"14","6p":"6","3s":"2","4f":"14","5p":"6","2s":"2","4p":"6","1s":"2","3p":"6","6d":"4","2p":"6","5d":"10","7s":"2","4d":"10","6s":"2"},"criticalTemperature":"","heatOfFusion":""}