{"hardnessScaleMohs":"6.5","opticalReflectivity":"28","meltingPointFootnote":"","conductivityElectrical":"0.00000000000252","standardCondition":"Solid","crystalStructure":"CubicFace","coefficientOfLinealThermalExpansion":"0.0000042","flammabilityClass":"Combustable soild in powder form","molarHeatCapacity":"19.789","numberOfNeutrons":"14","series":"Non Metal","vaporPressure":{"pa10":"1829","pa100kFootnote":"","pa100Footnote":"","pa100":"2066","pa1Footnote":"","pa1":"1635","pa1kFootnote":"","pa1k":"2363","pa10kFootnote":"","pa10Footnote":"","pa10k":"2748","pa100k":"3264"},"casRegistryNumber":"7440-21-3","oxidationStates":"4","lineSpectra":[{"intensity":"10","airWavelength":"4088.8500","spectrum":"Si IV"},{"intensity":"9","airWavelength":"4116.1000","spectrum":"Si IV"},{"intensity":"50","airWavelength":"4128.0670","spectrum":"Si II"},{"intensity":"70","airWavelength":"4130.8930","spectrum":"Si II"},{"intensity":"9","airWavelength":"4338.5000","spectrum":"Si III"},{"intensity":"30","airWavelength":"4552.6200","spectrum":"Si III"},{"intensity":"25","airWavelength":"4567.8200","spectrum":"Si III"},{"intensity":"20","airWavelength":"4574.7600","spectrum":"Si III"},{"intensity":"20","airWavelength":"4621.7210","spectrum":"Si II"},{"intensity":"9","airWavelength":"4631.2400","spectrum":"Si IV"},{"intensity":"10","airWavelength":"4654.3200","spectrum":"Si III"},{"intensity":"9","airWavelength":"4683.0200","spectrum":"Si III"},{"intensity":"16","airWavelength":"4716.6500","spectrum":"Si III"},{"intensity":"15","airWavelength":"4813.3300","spectrum":"Si III"},{"intensity":"16","airWavelength":"4819.7200","spectrum":"Si III"},{"intensity":"18","airWavelength":"4828.9700","spectrum":"Si III"},{"intensity":"130","airWavelength":"5041.0260","spectrum":"Si II"},{"intensity":"130","airWavelength":"5055.9810","spectrum":"Si II"},{"intensity":"10","airWavelength":"5091.4200","spectrum":"Si III"},{"intensity":"25","airWavelength":"5192.8600","spectrum":"Si II"},{"intensity":"70","airWavelength":"5202.4100","spectrum":"Si II"},{"intensity":"70","airWavelength":"5466.4320","spectrum":"Si II"},{"intensity":"70","airWavelength":"5466.8680","spectrum":"Si II"},{"intensity":"25","airWavelength":"5496.4500","spectrum":"Si II"},{"intensity":"20","airWavelength":"5576.6600","spectrum":"Si II"},{"intensity":"25","airWavelength":"5639.4800","spectrum":"Si II"},{"intensity":"20","airWavelength":"5660.6600","spectrum":"Si II"},{"intensity":"130","airWavelength":"5669.5620","spectrum":"Si II"},{"intensity":"60","airWavelength":"5684.4840","spectrum":"Si I"},{"intensity":"40","airWavelength":"5688.8100","spectrum":"Si II"},{"intensity":"25","airWavelength":"5701.3700","spectrum":"Si II"},{"intensity":"80","airWavelength":"5708.3970","spectrum":"Si I"},{"intensity":"20","airWavelength":"5739.7300","spectrum":"Si III"},{"intensity":"25","airWavelength":"5800.4700","spectrum":"Si II"},{"intensity":"30","airWavelength":"5806.7400","spectrum":"Si II"},{"intensity":"50","airWavelength":"5868.4000","spectrum":"Si II"},{"intensity":"9","airWavelength":"5898.7900","spectrum":"Si III"},{"intensity":"25","airWavelength":"5915.2200","spectrum":"Si II"},{"intensity":"50","airWavelength":"5948.5450","spectrum":"Si I"},{"intensity":"80","airWavelength":"5957.5610","spectrum":"Si II"},{"intensity":"80","airWavelength":"5978.9290","spectrum":"Si II"},{"intensity":"40","airWavelength":"6155.1340","spectrum":"Si I"},{"intensity":"40","airWavelength":"6237.3200","spectrum":"Si I"},{"intensity":"30","airWavelength":"6243.8130","spectrum":"Si I"},{"intensity":"30","airWavelength":"6244.4680","spectrum":"Si I"},{"intensity":"40","airWavelength":"6254.1880","spectrum":"Si I"},{"intensity":"130","airWavelength":"6347.1030","spectrum":"Si II"},{"intensity":"100","airWavelength":"6371.3590","spectrum":"Si II"},{"intensity":"7","airWavelength":"6701.2100","spectrum":"Si IV"}],"numberOfElectrons":"14","magneticSusceptibility":"-3.12","atomicVolume":"12.1","abundanceCrust":"2.82x10⁵","boilingPoint":"3265","discoveryYear":"1823","electroNegativity":"1.9","meltingPoint":"1414","elasticModulusBulk":"100","boilingPointFootnote":"","ionizationPotentialSecond":"16.345","conductivityThermal":"148","discoveryLocation":"Sweden","descr":"Hard dark gray non-metal.","elasticModulusRigidity":"","discoverer":"Jöns Jakob Berzelius","ionicRadius":"0.4","numberOfProtons":"14","abundanceSea":"2.2","atomicMass":"28.0855","ionizationPotentialFirst":"8.151","molarVolume":"12.05","hardnessScaleVickers":"","enthalpyOfAtomization":"439.3","density":"2.3290","enthalpyOfFusion":"46.44","opticalRefractiveIndex":"","qualitativeSolubility":"insoluble in H₂0, acid; soluble in alkaline solutions","name":"Silicon","specificHeat":"0.705","atomicMassUncertainty":3,"valenceElectronPotential":"144","covalentRadius":"1.11","electronWorkFunction":"4.52","valenceElectrons":[{"3s":"2"},{"3p":"2"}],"atomicMassKnownAccurately":true,"period":"3","symbol":"Si","nuclidesAndIsotopes":[{"nuclideSymbol":"Si22","decayEnergy":"13.980","decayModes":"ξ","zp":"","halfLife":"6ms","nn":"8","nuclearSpin":"0+","daughterIsotopes":"Al22","isotopicComposition":"Syn","atomicMass":"22.035"},{"nuclideSymbol":"","decayEnergy":"13.960","decayModes":"ξ + P","zp":"","halfLife":"6ms","nn":"","nuclearSpin":"","daughterIsotopes":"Mg21","isotopicComposition":"","atomicMass":""},{"nuclideSymbol":"Si23","decayEnergy":"","decayModes":"","zp":"","halfLife":">200ns","nn":"9","nuclearSpin":"","daughterIsotopes":"","isotopicComposition":"Syn","atomicMass":"23.026"},{"nuclideSymbol":"Si24","decayEnergy":"8.938","decayModes":"ξ + P","zp":"~7","halfLife":"102ms","nn":"10","nuclearSpin":"0+","daughterIsotopes":"Mg23","isotopicComposition":"Syn","atomicMass":"24.0115"},{"nuclideSymbol":"","decayEnergy":"10.810","decayModes":"ξ","zp":"","halfLife":"102ms","nn":"","nuclearSpin":"","daughterIsotopes":"Al24","isotopicComposition":"","atomicMass":""},{"nuclideSymbol":"Si25","decayEnergy":"12.741","decayModes":"ξ","zp":"","halfLife":"220ms","nn":"11","nuclearSpin":"5\/2+","daughterIsotopes":"Al25","isotopicComposition":"Syn","atomicMass":"25.0041"},{"nuclideSymbol":"","decayEnergy":"10.470","decayModes":"ξ + P","zp":"","halfLife":"220ms","nn":"","nuclearSpin":"","daughterIsotopes":"Mg24","isotopicComposition":"","atomicMass":""},{"nuclideSymbol":"Si26","decayEnergy":"5.066","decayModes":"ξ","zp":"","halfLife":"2.234s","nn":"12","nuclearSpin":"0+","daughterIsotopes":"Al26","isotopicComposition":"Syn","atomicMass":"25.9923"},{"nuclideSymbol":"Si27","decayEnergy":"4.812","decayModes":"ξ","zp":"","halfLife":"4.16s","nn":"13","nuclearSpin":"5\/2+","daughterIsotopes":"Al27","isotopicComposition":"Syn","atomicMass":"26.9867"},{"nuclideSymbol":"Si28","decayEnergy":"","decayModes":"","zp":"","halfLife":"Stable","nn":"14","nuclearSpin":"0+","daughterIsotopes":"","isotopicComposition":"92.23","atomicMass":"27.9769"},{"nuclideSymbol":"Si29","decayEnergy":"","decayModes":"","zp":"","halfLife":"Stable","nn":"15","nuclearSpin":"1\/2+","daughterIsotopes":"","isotopicComposition":"4.67","atomicMass":"28.9765"},{"nuclideSymbol":"Si30","decayEnergy":"","decayModes":"","zp":"","halfLife":"Stable","nn":"16","nuclearSpin":"0+","daughterIsotopes":"","isotopicComposition":"3.1","atomicMass":"29.9738"},{"nuclideSymbol":"Si31","decayEnergy":"1.492","decayModes":"β-","zp":"","halfLife":"157.3m","nn":"17","nuclearSpin":"3\/2+","daughterIsotopes":"P31","isotopicComposition":"Syn","atomicMass":"30.9754"},{"nuclideSymbol":"Si32","decayEnergy":"0.224","decayModes":"β-","zp":"","halfLife":"150y","nn":"18","nuclearSpin":"0+","daughterIsotopes":"P32","isotopicComposition":"Syn","atomicMass":"31.9742"},{"nuclideSymbol":"Si33","decayEnergy":"5.845","decayModes":"β-","zp":"","halfLife":"6.18s","nn":"19","nuclearSpin":"","daughterIsotopes":"P33","isotopicComposition":"Syn","atomicMass":"32.978"},{"nuclideSymbol":"Si34","decayEnergy":"4.601","decayModes":"β-","zp":"","halfLife":"2.77s","nn":"20","nuclearSpin":"0+","daughterIsotopes":"P34","isotopicComposition":"Syn","atomicMass":"33.9786"},{"nuclideSymbol":"Si35","decayEnergy":"10.500","decayModes":"β-","zp":"","halfLife":"0.78s","nn":"21","nuclearSpin":"","daughterIsotopes":"P35","isotopicComposition":"Syn","atomicMass":"34.9846"},{"nuclideSymbol":"Si36","decayEnergy":"4.390","decayModes":"β- + N","zp":"<10","halfLife":"0.45s","nn":"22","nuclearSpin":"0+","daughterIsotopes":"P35","isotopicComposition":"Syn","atomicMass":"35.987"},{"nuclideSymbol":"","decayEnergy":"7.850","decayModes":"β-","zp":"","halfLife":"0.45s","nn":"","nuclearSpin":"","daughterIsotopes":"P36","isotopicComposition":"","atomicMass":""},{"nuclideSymbol":"Si37","decayEnergy":"5.660","decayModes":"β- + N","zp":"<15","halfLife":">1us","nn":"23","nuclearSpin":"","daughterIsotopes":"P36","isotopicComposition":"Syn","atomicMass":"36.993"},{"nuclideSymbol":"Si38","decayEnergy":"","decayModes":"","zp":"","halfLife":">1us","nn":"24","nuclearSpin":"0+","daughterIsotopes":"","isotopicComposition":"Syn","atomicMass":"37.996"},{"nuclideSymbol":"Si39","decayEnergy":"","decayModes":"","zp":"","halfLife":">1us","nn":"25","nuclearSpin":"","daughterIsotopes":"","isotopicComposition":"Syn","atomicMass":"39.002"},{"nuclideSymbol":"Si40","decayEnergy":"","decayModes":"","zp":"","halfLife":">200ns","nn":"26","nuclearSpin":"0+","daughterIsotopes":"","isotopicComposition":"Syn","atomicMass":"40.006"},{"nuclideSymbol":"Si41","decayEnergy":"","decayModes":"","zp":"","halfLife":">200ns","nn":"27","nuclearSpin":"","daughterIsotopes":"","isotopicComposition":"Syn","atomicMass":"41.013"},{"nuclideSymbol":"Si42","decayEnergy":"","decayModes":"","zp":"","halfLife":">200ns","nn":"28","nuclearSpin":"0+","daughterIsotopes":"","isotopicComposition":"Syn","atomicMass":"42.016"}],"elasticModulusYoungs":"47","atomicMassFootnote":"r","incompatibilities":"Chlorine, florine, oxidizers, calcium, cesium carbide, alkaline carbonates","fillingOrbital":[{"1s":"1"}],"atomicRadius":"1.46","enthalpyOfVaporization":"439","heatOfVaporization":"384.22","hardnessScaleBrinell":"","group":"14","atomicNumber":14,"relativeGasDensity":"","ionizationPotentialThird":"33.492","crossSection":"","electroChemicalEquivalent":"0.26197","electronConfiguration":{"3p":"2","2p":"6","3s":"2","2s":"2","1s":"2"},"criticalTemperature":"","heatOfFusion":"50.55"}