{"hardnessScaleMohs":"","opticalReflectivity":"","meltingPointFootnote":"","conductivityElectrical":"0.00956","standardCondition":"Solid","crystalStructure":"Rhombohedral","coefficientOfLinealThermalExpansion":"","flammabilityClass":"","molarHeatCapacity":"29.54","numberOfNeutrons":"88","series":"Lanthanide","vaporPressure":{"pa100k":"1788","pa100kFootnote":"i","pa100Footnote":"s","pa100":"967","pa1Footnote":"s","pa1":"728","pa1kFootnote":"i","pa1k":"1148","pa10kFootnote":"i","pa10Footnote":"s","pa10k":"1402","pa10":"833"},"casRegistryNumber":"7440-19-9","oxidationStates":"3, 2","lineSpectra":[{"intensity":"0","airWavelength":"0","spectrum":"TBD"}],"numberOfElectrons":"62","magneticSusceptibility":"+1278","atomicVolume":"19.95","abundanceCrust":"7.05","boilingPoint":"1794","discoveryYear":"1879","electroNegativity":"1.17","meltingPoint":"1074","elasticModulusBulk":"38","boilingPointFootnote":"","ionizationPotentialSecond":"11.069","conductivityThermal":"0.133","discoveryLocation":"France","descr":"Silver colored rare earth metal.","elasticModulusRigidity":"20","discoverer":"Paul émile Lecoq de Boisbaudran","ionicRadius":"0.964","numberOfProtons":"62","abundanceSea":"4.5x10⁻⁷","atomicMass":"150.36","molarVolume":"19.95","ionizationPotentialFirst":"5.64","hardnessScaleVickers":"412","enthalpyOfAtomization":"209","density":"7.52","enthalpyOfFusion":"8.62","opticalRefractiveIndex":"","qualitativeSolubility":"","name":"Samarium","specificHeat":"0.197","atomicMassUncertainty":3,"valenceElectronPotential":"44.8","covalentRadius":"1.62","electronWorkFunction":"2.7","valenceElectrons":[{"4f":"6"},{"6s":"2"}],"atomicMassKnownAccurately":true,"period":"6","symbol":"Sm","nuclidesAndIsotopes":[{"nuclideSymbol":"","decayEnergy":"","decayModes":"","zp":"","halfLife":"","nn":"","nuclearSpin":"","daughterIsotopes":"","isotopicComposition":"","atomicMass":""}],"elasticModulusYoungs":"50","atomicMassFootnote":"g","incompatibilities":"","fillingOrbital":[{"4f":"6"}],"atomicRadius":"2.59","enthalpyOfVaporization":"166.4","heatOfVaporization":"166.4","hardnessScaleBrinell":"442","group":"","atomicNumber":62,"relativeGasDensity":"","ionizationPotentialThird":"23.423","crossSection":"5820","electroChemicalEquivalent":"1.87","electronConfiguration":{"3d":"10","5s":"2","4s":"2","3s":"2","4f":"6","5p":"6","2s":"2","4p":"6","1s":"2","3p":"6","2p":"6","4d":"10","6s":"2"},"criticalTemperature":"","heatOfFusion":"8.63"}