{"hardnessScaleMohs":"1.5","opticalReflectivity":"54","meltingPointFootnote":"(white)","conductivityElectrical":"0.0917","standardCondition":"Solid","crystalStructure":"Tetragonal","coefficientOfLinealThermalExpansion":"0.000023","flammabilityClass":"Non-combustible solid (except as dust)","molarHeatCapacity":"27.112","numberOfNeutrons":"69","series":"Metal","vaporPressure":{"pa100k":"2620","pa100kFootnote":"","pa100Footnote":"","pa100":"1582","pa1Footnote":"","pa1":"1224","pa1kFootnote":"","pa1k":"1834","pa10kFootnote":"","pa10Footnote":"","pa10k":"2165","pa10":"1384"},"casRegistryNumber":"7440-31-5","oxidationStates":"4, 2","lineSpectra":[{"intensity":"0","airWavelength":"0","spectrum":"TBD"}],"numberOfElectrons":"50","magneticSusceptibility":"-37.4","atomicVolume":"16.3","abundanceCrust":"2.3","boilingPoint":"2602","discoveryYear":"Known to the ancients","electroNegativity":"1.96","meltingPoint":"231.93","elasticModulusBulk":"58","boilingPointFootnote":"(white)","ionizationPotentialSecond":"14.632","conductivityThermal":"0.666","discoveryLocation":"?","descr":"Very malleable white metal.","elasticModulusRigidity":"18","discoverer":"Known to the ancients","ionicRadius":"0.69","numberOfProtons":"50","abundanceSea":"4x10⁻⁶","atomicMass":"118.710","molarVolume":"16.31","ionizationPotentialFirst":"7.344","hardnessScaleVickers":"","enthalpyOfAtomization":"301.3","density":"7.265","enthalpyOfFusion":"7.03","opticalRefractiveIndex":"","qualitativeSolubility":"","name":"Tin","specificHeat":"0.228","atomicMassUncertainty":7,"valenceElectronPotential":"83.5","covalentRadius":"1.41","hardnessScaleBrinnel":"51","electronWorkFunction":"4.42","valenceElectrons":[{"5s":"2"},{"5p":"2"}],"atomicMassKnownAccurately":true,"period":"5","symbol":"Sn","nuclidesAndIsotopes":[{"nuclideSymbol":"","decayEnergy":"","decayModes":"","zp":"","halfLife":"","nn":"","nuclearSpin":"","daughterIsotopes":"","isotopicComposition":"","atomicMass":""}],"elasticModulusYoungs":"50","atomicMassFootnote":"g","incompatibilities":"Chlorine, turpentine, acids, alkalis","fillingOrbital":[{"5p":"2"}],"atomicRadius":"1.72","enthalpyOfVaporization":"290.4","heatOfVaporization":"295.8","group":"14","atomicNumber":50,"relativeGasDensity":"","ionizationPotentialThird":"30.502","crossSection":"0.63","electroChemicalEquivalent":"1.1071","electronConfiguration":{"4p":"6","5s":"2","3p":"6","4s":"2","2p":"6","3s":"2","2s":"2","3d":"10","1s":"2","4d":"10","5p":"2"},"criticalTemperature":"","heatOfFusion":"7.029"}