{"hardnessScaleMohs":"1.5","opticalReflectivity":"","meltingPointFootnote":"","conductivityElectrical":"0.0762","standardCondition":"Solid","crystalStructure":"CubicBody","coefficientOfLinealThermalExpansion":"0.000021","flammabilityClass":"","molarHeatCapacity":"26.4","numberOfNeutrons":"50","series":"Alkali Earth Metal","vaporPressure":{"pa10":"609","pa100kFootnote":"","pa100Footnote":"s","pa100":"717","pa1Footnote":"s","pa1":"523","pa1kFootnote":"","pa1k":"866","pa10kFootnote":"","pa10Footnote":"s","pa10k":"1072","pa100k":"1373"},"casRegistryNumber":"7440-26-6","oxidationStates":"2","lineSpectra":[{"intensity":"0","airWavelength":"0","spectrum":"TBD"}],"numberOfElectrons":"38","magneticSusceptibility":"+92","atomicVolume":"33.7","abundanceCrust":"3.7x10²","boilingPoint":"1382","discoveryYear":"1790","electroNegativity":"0.95","meltingPoint":"777","elasticModulusBulk":"","boilingPointFootnote":"","ionizationPotentialSecond":"11.03","conductivityThermal":"0.353","discoveryLocation":"Scotland","descr":"Soft silvery yellow metal.","elasticModulusRigidity":"6.1","discoverer":"A. Crawford","ionicRadius":"1.12","numberOfProtons":"38","abundanceSea":"7.9","atomicMass":"87.62","molarVolume":"33.7","ionizationPotentialFirst":"5.695","hardnessScaleVickers":"","enthalpyOfAtomization":"163.2","density":"2.64","enthalpyOfFusion":"9.16","opticalRefractiveIndex":"","qualitativeSolubility":"reacts with H₂0; soluble in ethanol","name":"Strontium","specificHeat":"0.301","atomicMassUncertainty":1,"valenceElectronPotential":"25.7","covalentRadius":"1.91","electronWorkFunction":"2.59","valenceElectrons":[{"5s":"2"}],"atomicMassKnownAccurately":true,"period":"5","symbol":"Sr","nuclidesAndIsotopes":[{"nuclideSymbol":"Sr73","decayEnergy":"","decayModes":"","zp":"","halfLife":"","nn":"35","nuclearSpin":"","daughterIsotopes":"","isotopicComposition":"Syn","atomicMass":"72.966"},{"nuclideSymbol":"Sr74","decayEnergy":"","decayModes":"","zp":"","halfLife":"","nn":"36","nuclearSpin":"0+","daughterIsotopes":"","isotopicComposition":"Syn","atomicMass":"73.956"},{"nuclideSymbol":"Sr75","decayEnergy":"8.200","decayModes":"ξ + P","zp":"6.5","halfLife":"71ms","nn":"37","nuclearSpin":"","daughterIsotopes":"Kr74","isotopicComposition":"Syn","atomicMass":"74.95"},{"nuclideSymbol":"","decayEnergy":"10.600","decayModes":"ξ","zp":"","halfLife":"71ms","nn":"","nuclearSpin":"","daughterIsotopes":"Rb75","isotopicComposition":"","atomicMass":""},{"nuclideSymbol":"Sr76","decayEnergy":"6.100","decayModes":"ξ","zp":"","halfLife":"8.9s","nn":"38","nuclearSpin":"0+","daughterIsotopes":"Rb76","isotopicComposition":"Syn","atomicMass":"75.942"},{"nuclideSymbol":"Sr77","decayEnergy":"3.710","decayModes":"ξ + P","zp":"<0.25","halfLife":"9s","nn":"39","nuclearSpin":"5\/2+","daughterIsotopes":"Kr76","isotopicComposition":"Syn","atomicMass":"76.938"},{"nuclideSymbol":"","decayEnergy":"6.850","decayModes":"ξ","zp":"","halfLife":"9s","nn":"","nuclearSpin":"","daughterIsotopes":"Rb77","isotopicComposition":"","atomicMass":""},{"nuclideSymbol":"Sr78","decayEnergy":"3.762","decayModes":"ξ","zp":"","halfLife":"2.5m","nn":"40","nuclearSpin":"0+","daughterIsotopes":"Rb78","isotopicComposition":"Syn","atomicMass":"77.9322"},{"nuclideSymbol":"Sr79","decayEnergy":"5.318","decayModes":"ξ","zp":"","halfLife":"2.25m","nn":"41","nuclearSpin":"3\/2-","daughterIsotopes":"Rb79","isotopicComposition":"Syn","atomicMass":"78.9297"},{"nuclideSymbol":"Sr80","decayEnergy":"1.868","decayModes":"ξ","zp":"","halfLife":"106.3m","nn":"42","nuclearSpin":"0+","daughterIsotopes":"Rb80","isotopicComposition":"Syn","atomicMass":"79.9245"},{"nuclideSymbol":"Sr81","decayEnergy":"3.930","decayModes":"ξ","zp":"","halfLife":"22.3m","nn":"43","nuclearSpin":"1\/2-","daughterIsotopes":"Rb81","isotopicComposition":"Syn","atomicMass":"80.9232"},{"nuclideSymbol":"Sr82","decayEnergy":"0.180","decayModes":"ξ","zp":"","halfLife":"25.55d","nn":"44","nuclearSpin":"0+","daughterIsotopes":"Rb82","isotopicComposition":"Syn","atomicMass":"81.9184"},{"nuclideSymbol":"Sr83","decayEnergy":"2.276","decayModes":"ξ","zp":"","halfLife":"32.41h","nn":"45","nuclearSpin":"7\/2+","daughterIsotopes":"Rb83","isotopicComposition":"Syn","atomicMass":"82.9176"},{"nuclideSymbol":"MS","decayEnergy":"0.259","decayModes":"IT","zp":"","halfLife":"4.95s","nn":"","nuclearSpin":"1\/2-","daughterIsotopes":"","isotopicComposition":"Syn","atomicMass":"0.259MeV"},{"nuclideSymbol":"Sr84","decayEnergy":"","decayModes":"","zp":"","halfLife":"Stable","nn":"46","nuclearSpin":"0+","daughterIsotopes":"","isotopicComposition":"0.56","atomicMass":"83.9134"},{"nuclideSymbol":"Sr85","decayEnergy":"1.065","decayModes":"ξ","zp":"","halfLife":"64.84d","nn":"47","nuclearSpin":"9\/2+","daughterIsotopes":"Rb85","isotopicComposition":"Syn","atomicMass":"84.9129"},{"nuclideSymbol":"MS","decayEnergy":"0.239","decayModes":"IT","zp":"86.6","halfLife":"67.63m","nn":"","nuclearSpin":"1\/2-","daughterIsotopes":"","isotopicComposition":"Syn","atomicMass":"0.239MeV"},{"nuclideSymbol":"","decayEnergy":"1.304","decayModes":"ξ","zp":"13.4","halfLife":"67.63m","nn":"","nuclearSpin":"","daughterIsotopes":"Rb85","isotopicComposition":"","atomicMass":""},{"nuclideSymbol":"Sr86","decayEnergy":"","decayModes":"","zp":"","halfLife":"Stable","nn":"48","nuclearSpin":"0+","daughterIsotopes":"","isotopicComposition":"9.86","atomicMass":"85.9093"},{"nuclideSymbol":"MS","decayEnergy":"2.956","decayModes":"IT","zp":"","halfLife":"0.45us","nn":"","nuclearSpin":"8+","daughterIsotopes":"","isotopicComposition":"Syn","atomicMass":"2.955MeV"},{"nuclideSymbol":"Sr87","decayEnergy":"","decayModes":"","zp":"","halfLife":"Stable","nn":"49","nuclearSpin":"9\/2+","daughterIsotopes":"","isotopicComposition":"7","atomicMass":"86.9089"},{"nuclideSymbol":"MS","decayEnergy":"0.389","decayModes":"IT","zp":"99.7","halfLife":"2.803h","nn":"","nuclearSpin":"1\/2-","daughterIsotopes":"","isotopicComposition":"Syn","atomicMass":"0.388MeV"},{"nuclideSymbol":"","decayEnergy":"0.106","decayModes":"ξ","zp":"0.3","halfLife":"2.803h","nn":"","nuclearSpin":"","daughterIsotopes":"Rb87","isotopicComposition":"","atomicMass":""},{"nuclideSymbol":"Sr88","decayEnergy":"","decayModes":"","zp":"","halfLife":"Stable","nn":"50","nuclearSpin":"0+","daughterIsotopes":"","isotopicComposition":"82.58","atomicMass":"87.9056"},{"nuclideSymbol":"Sr89","decayEnergy":"1.495","decayModes":"β-","zp":"","halfLife":"50.53d","nn":"51","nuclearSpin":"5\/2+","daughterIsotopes":"Y89","isotopicComposition":"Syn","atomicMass":"88.9075"},{"nuclideSymbol":"Sr90","decayEnergy":"0.546","decayModes":"β-","zp":"","halfLife":"28.78y","nn":"52","nuclearSpin":"0+","daughterIsotopes":"Y90","isotopicComposition":"Syn","atomicMass":"89.9077"},{"nuclideSymbol":"Sr91","decayEnergy":"2.699","decayModes":"β-","zp":"","halfLife":"9.63h","nn":"53","nuclearSpin":"5\/2+","daughterIsotopes":"Y91","isotopicComposition":"Syn","atomicMass":"90.9102"},{"nuclideSymbol":"Sr92","decayEnergy":"1.911","decayModes":"β-","zp":"","halfLife":"2.71h","nn":"54","nuclearSpin":"0+","daughterIsotopes":"Y92","isotopicComposition":"Syn","atomicMass":"91.911"},{"nuclideSymbol":"Sr93","decayEnergy":"4.137","decayModes":"β-","zp":"","halfLife":"7.423m","nn":"55","nuclearSpin":"5\/2+","daughterIsotopes":"Y93","isotopicComposition":"Syn","atomicMass":"92.914"},{"nuclideSymbol":"Sr94","decayEnergy":"3.511","decayModes":"β-","zp":"","halfLife":"75.3s","nn":"56","nuclearSpin":"0+","daughterIsotopes":"Y94","isotopicComposition":"Syn","atomicMass":"93.9154"},{"nuclideSymbol":"Sr95","decayEnergy":"6.080","decayModes":"β-","zp":"","halfLife":"23.9s","nn":"57","nuclearSpin":"1\/2+","daughterIsotopes":"Y95","isotopicComposition":"Syn","atomicMass":"94.9194"},{"nuclideSymbol":"Sr96","decayEnergy":"5.371","decayModes":"β-","zp":"","halfLife":"1.07s","nn":"58","nuclearSpin":"0+","daughterIsotopes":"Y96","isotopicComposition":"Syn","atomicMass":"95.9217"},{"nuclideSymbol":"Sr97","decayEnergy":"1.488","decayModes":"β- + N","zp":"<=0.05","halfLife":"429ms","nn":"59","nuclearSpin":"1\/2+","daughterIsotopes":"Y96","isotopicComposition":"Syn","atomicMass":"96.9261"},{"nuclideSymbol":"","decayEnergy":"7.467","decayModes":"β-","zp":"","halfLife":"429ms","nn":"","nuclearSpin":"","daughterIsotopes":"Y97","isotopicComposition":"","atomicMass":""},{"nuclideSymbol":"Sr98","decayEnergy":"1.580","decayModes":"β- + N","zp":"0.25","halfLife":"0.653s","nn":"60","nuclearSpin":"0+","daughterIsotopes":"Y97","isotopicComposition":"Syn","atomicMass":"97.9285"},{"nuclideSymbol":"","decayEnergy":"5.826","decayModes":"β-","zp":"","halfLife":"0.653s","nn":"","nuclearSpin":"","daughterIsotopes":"Y98","isotopicComposition":"","atomicMass":""},{"nuclideSymbol":"Sr99","decayEnergy":"2.190","decayModes":"β- + N","zp":"0.1","halfLife":"0.269s","nn":"61","nuclearSpin":"3\/2+","daughterIsotopes":"Y98","isotopicComposition":"Syn","atomicMass":"98.933"},{"nuclideSymbol":"","decayEnergy":"8.030","decayModes":"β-","zp":"","halfLife":"0.269s","nn":"","nuclearSpin":"","daughterIsotopes":"Y99","isotopicComposition":"","atomicMass":""},{"nuclideSymbol":"Sr100","decayEnergy":"1.910","decayModes":"β- + N","zp":"0.78","halfLife":"202ms","nn":"62","nuclearSpin":"0+","daughterIsotopes":"Y99","isotopicComposition":"Syn","atomicMass":"99.935"},{"nuclideSymbol":"","decayEnergy":"7.080","decayModes":"β-","zp":"","halfLife":"202ms","nn":"","nuclearSpin":"","daughterIsotopes":"Y100","isotopicComposition":"","atomicMass":""},{"nuclideSymbol":"Sr101","decayEnergy":"3.820","decayModes":"β- + N","zp":"2.52","halfLife":"118ms","nn":"63","nuclearSpin":"5\/2+","daughterIsotopes":"Y100","isotopicComposition":"Syn","atomicMass":"100.941"},{"nuclideSymbol":"","decayEnergy":"9.510","decayModes":"β-","zp":"","halfLife":"118ms","nn":"","nuclearSpin":"","daughterIsotopes":"Y101","isotopicComposition":"","atomicMass":""},{"nuclideSymbol":"Sr102","decayEnergy":"3.760","decayModes":"β- + N","zp":"5.5","halfLife":"69ms","nn":"64","nuclearSpin":"0+","daughterIsotopes":"Y101","isotopicComposition":"Syn","atomicMass":"101.943"},{"nuclideSymbol":"","decayEnergy":"8.820","decayModes":"β-","zp":"","halfLife":"69ms","nn":"","nuclearSpin":"","daughterIsotopes":"Y102","isotopicComposition":"","atomicMass":""},{"nuclideSymbol":"Sr103","decayEnergy":"","decayModes":"","zp":"","halfLife":"","nn":"65","nuclearSpin":"","daughterIsotopes":"","isotopicComposition":"Syn","atomicMass":"102.949"},{"nuclideSymbol":"Sr104","decayEnergy":"","decayModes":"","zp":"","halfLife":"","nn":"66","nuclearSpin":"0+","daughterIsotopes":"","isotopicComposition":"Syn","atomicMass":"103.952"}],"elasticModulusYoungs":"","atomicMassFootnote":"g r","incompatibilities":"","fillingOrbital":[{"5s":"2"}],"atomicRadius":"2.45","enthalpyOfVaporization":"150","heatOfVaporization":"144","hardnessScaleBrinell":"","group":"2","atomicNumber":38,"relativeGasDensity":"","ionizationPotentialThird":"43.06","crossSection":"1.21","electroChemicalEquivalent":"1.635","electronConfiguration":{"4p":"6","5s":"2","3p":"6","4s":"2","2p":"6","3s":"2","2s":"2","3d":"10","1s":"2"},"criticalTemperature":"","heatOfFusion":"8.3"}