{"hardnessScaleMohs":"6.5","opticalReflectivity":"78","meltingPointFootnote":"","conductivityElectrical":"0.0761","standardCondition":"Solid","crystalStructure":"CubicBody","coefficientOfLinealThermalExpansion":"0.0000065","flammabilityClass":"Combustable solid, fine dust easily ignited","molarHeatCapacity":"25.36","numberOfNeutrons":"108","series":"Transition Metal","vaporPressure":{"pa100k":"5361","pa100kFootnote":"","pa100Footnote":"","pa100":"3684","pa1Footnote":"","pa1":"3024","pa1kFootnote":"","pa1k":"4122","pa10kFootnote":"","pa10Footnote":"","pa10k":"4666","pa10":"3324"},"casRegistryNumber":"7440-25-7","oxidationStates":"5","lineSpectra":[{"intensity":"0","airWavelength":"0","spectrum":"TBD"}],"numberOfElectrons":"73","magneticSusceptibility":"+154","atomicVolume":"10.9","abundanceCrust":"2.0","boilingPoint":"5458","discoveryYear":"1802","electroNegativity":"1.5","meltingPoint":"3017","elasticModulusBulk":"200","boilingPointFootnote":"","ionizationPotentialSecond":"","conductivityThermal":"0.575","discoveryLocation":"Sweden","descr":"Rare gray metal with a high melting point.","elasticModulusRigidity":"69","discoverer":"Anders Ekeberg","ionicRadius":"0.64","numberOfProtons":"73","abundanceSea":"2x10⁻⁶","atomicMass":"180.9479","molarVolume":"10.9","ionizationPotentialFirst":"7.89","hardnessScaleVickers":"873","enthalpyOfAtomization":"782","density":"16.4","enthalpyOfFusion":"31.4","opticalRefractiveIndex":"","qualitativeSolubility":"reacts with HF","name":"Tantalum","specificHeat":"0.140","atomicMassUncertainty":1,"valenceElectronPotential":"110","covalentRadius":"1.34","electronWorkFunction":"4.25","valenceElectrons":[{"5d":"3"},{"6s":"2"}],"atomicMassKnownAccurately":true,"period":"6","symbol":"Ta","nuclidesAndIsotopes":[{"nuclideSymbol":"","decayEnergy":"","decayModes":"","zp":"","halfLife":"","nn":"","nuclearSpin":"","daughterIsotopes":"","isotopicComposition":"","atomicMass":""}],"elasticModulusYoungs":"186","atomicMassFootnote":"","incompatibilities":"Strong oxidizers, bromine trifluoride, fluorine","fillingOrbital":[{"5d":"3"}],"atomicRadius":"2.09","enthalpyOfVaporization":"753.1","heatOfVaporization":"743","hardnessScaleBrinell":"800","group":"5","atomicNumber":73,"relativeGasDensity":"","ionizationPotentialThird":"","crossSection":"22","electroChemicalEquivalent":"1.3502","electronConfiguration":{"3d":"10","5s":"2","4s":"2","3s":"2","4f":"14","5p":"6","2s":"2","4p":"6","1s":"2","3p":"6","2p":"6","5d":"3","4d":"10","6s":"2"},"criticalTemperature":"","heatOfFusion":"31.6"}