{"hardnessScaleMohs":"","opticalReflectivity":"","meltingPointFootnote":"","conductivityElectrical":"0.00889","standardCondition":"Solid","crystalStructure":"Hexagonal","coefficientOfLinealThermalExpansion":"0.0000118","flammabilityClass":"","molarHeatCapacity":"28.91","numberOfNeutrons":"94","series":"Lanthanide","vaporPressure":{"pa100k":"3218","pa100kFootnote":"i","pa100Footnote":"i","pa100":"1928","pa1Footnote":"","pa1":"1516.1","pa1kFootnote":"i","pa1k":"2232","pa10kFootnote":"i","pa10Footnote":"","pa10k":"2640","pa10":"1706.1"},"casRegistryNumber":"7440-27-9","oxidationStates":"3, 4","lineSpectra":[{"intensity":"0","airWavelength":"0","spectrum":"TBD"}],"numberOfElectrons":"65","magneticSusceptibility":"+170000","atomicVolume":"19.2","abundanceCrust":"1.2","boilingPoint":"3230","discoveryYear":"1843","electroNegativity":"1.2","meltingPoint":"1356","elasticModulusBulk":"38.7","boilingPointFootnote":"","ionizationPotentialSecond":"11.525","conductivityThermal":"0.111","discoveryLocation":"Sweden","descr":"Silvery rare earth metal.","elasticModulusRigidity":"22","discoverer":"Carl Mosander","ionicRadius":"0.923","numberOfProtons":"65","abundanceSea":"1.4x10⁻⁷","atomicMass":"158.92534","molarVolume":"19.31","ionizationPotentialFirst":"5.86","hardnessScaleVickers":"863","enthalpyOfAtomization":"314","density":"8.23","enthalpyOfFusion":"10.8","opticalRefractiveIndex":"","qualitativeSolubility":"","name":"Terbium","specificHeat":"0.182","atomicMassUncertainty":2,"valenceElectronPotential":"","covalentRadius":"1.59","electronWorkFunction":"3","valenceElectrons":[{"4f":"9"},{"6s":"2"}],"atomicMassKnownAccurately":true,"period":"6","symbol":"Tb","nuclidesAndIsotopes":[{"nuclideSymbol":"","decayEnergy":"","decayModes":"","zp":"","halfLife":"","nn":"","nuclearSpin":"","daughterIsotopes":"","isotopicComposition":"","atomicMass":""}],"elasticModulusYoungs":"56","atomicMassFootnote":"","incompatibilities":"","fillingOrbital":[{"4f":"9"}],"atomicRadius":"2.51","enthalpyOfVaporization":"330.9","heatOfVaporization":"330.9","hardnessScaleBrinell":"677","group":"","atomicNumber":65,"relativeGasDensity":"","ionizationPotentialThird":"21.91","crossSection":"30","electroChemicalEquivalent":"1.9765","electronConfiguration":{"3d":"10","5s":"2","4s":"2","3s":"2","4f":"9","5p":"6","2s":"2","4p":"6","1s":"2","3p":"6","2p":"6","4d":"10","6s":"2"},"criticalTemperature":"","heatOfFusion":"10.8"}