{"hardnessScaleMohs":"","opticalReflectivity":"","meltingPointFootnote":"","conductivityElectrical":"0.067","standardCondition":"Synthetic","crystalStructure":"Hexagonal","coefficientOfLinealThermalExpansion":"","flammabilityClass":"","molarHeatCapacity":"","numberOfNeutrons":"55","series":"Transition Metal","vaporPressure":{"pa10":"2725","pa100kFootnote":"e","pa100Footnote":"e","pa100":"3051","pa1Footnote":"e","pa1":"2454","pa1kFootnote":"e","pa1k":"3453","pa10kFootnote":"e","pa10Footnote":"e","pa10k":"3961","pa100k":"4621"},"casRegistryNumber":"7440-26-8","oxidationStates":"7","lineSpectra":[{"intensity":"0","airWavelength":"0","spectrum":"TBD"}],"numberOfElectrons":"43","magneticSusceptibility":"+115","atomicVolume":"8.5","abundanceCrust":"","boilingPoint":"4265","discoveryYear":"1937","electroNegativity":"","meltingPoint":"2157","elasticModulusBulk":"","boilingPointFootnote":"","ionizationPotentialSecond":"15.26","conductivityThermal":"0.506","discoveryLocation":"Italy","descr":"First artificially created element.","elasticModulusRigidity":"","discoverer":"Carlo Perrier, Emillo Segre","ionicRadius":"0.56","numberOfProtons":"43","abundanceSea":"","atomicMass":"97.9072","molarVolume":"8.51","ionizationPotentialFirst":"7.28","hardnessScaleVickers":"","enthalpyOfAtomization":"649","density":"11","enthalpyOfFusion":"23.01","opticalRefractiveIndex":"","qualitativeSolubility":"","name":"Technetium","specificHeat":"","valenceElectronPotential":"180","covalentRadius":"1.27","electronWorkFunction":"1.9","valenceElectrons":[{"4d":"6"},{"5s":"1"}],"atomicMassKnownAccurately":false,"period":"5","symbol":"Tc","nuclidesAndIsotopes":[{"nuclideSymbol":"Tc85","decayEnergy":"","decayModes":"","zp":"","halfLife":"","nn":"42","nuclearSpin":"","daughterIsotopes":"","isotopicComposition":"Syn","atomicMass":"84.949"},{"nuclideSymbol":"Tc86","decayEnergy":"","decayModes":"","zp":"","halfLife":">150ns","nn":"43","nuclearSpin":"","daughterIsotopes":"","isotopicComposition":"Syn","atomicMass":"85.943"},{"nuclideSymbol":"Tc87","decayEnergy":"","decayModes":"","zp":"","halfLife":">150ns","nn":"44","nuclearSpin":"9\/2+","daughterIsotopes":"","isotopicComposition":"Syn","atomicMass":"86.937"},{"nuclideSymbol":"Tc88","decayEnergy":"10.100","decayModes":"ξ","zp":"","halfLife":"6.4s","nn":"45","nuclearSpin":"6, 7, 8","daughterIsotopes":"Mo88","isotopicComposition":"Syn","atomicMass":"87.933"},{"nuclideSymbol":"MS","decayEnergy":"10.100","decayModes":"ξ","zp":"","halfLife":"5.8s","nn":"","nuclearSpin":"2, 3","daughterIsotopes":"Mo88","isotopicComposition":"Syn","atomicMass":"0.000MeV"},{"nuclideSymbol":"Tc89","decayEnergy":"7.510","decayModes":"ξ","zp":"","halfLife":"12.8s","nn":"46","nuclearSpin":"9\/2+","daughterIsotopes":"Mo89","isotopicComposition":"Syn","atomicMass":"88.928"},{"nuclideSymbol":"MS","decayEnergy":"7.510","decayModes":"ξ","zp":"","halfLife":"12.9s","nn":"","nuclearSpin":"1\/2-","daughterIsotopes":"Mo89","isotopicComposition":"Syn","atomicMass":"0.000MeV"},{"nuclideSymbol":"Tc90","decayEnergy":"9.100","decayModes":"ξ","zp":"","halfLife":"49.2s","nn":"47","nuclearSpin":"8+","daughterIsotopes":"Mo90","isotopicComposition":"Syn","atomicMass":"89.924"},{"nuclideSymbol":"MS","decayEnergy":"9.600","decayModes":"ξ","zp":"","halfLife":"8.7s","nn":"","nuclearSpin":"1+","daughterIsotopes":"Mo90","isotopicComposition":"Syn","atomicMass":"0.500MeV"},{"nuclideSymbol":"Tc91","decayEnergy":"6.220","decayModes":"ξ","zp":"","halfLife":"3.14m","nn":"48","nuclearSpin":"9\/2+","daughterIsotopes":"Mo91","isotopicComposition":"Syn","atomicMass":"90.918"},{"nuclideSymbol":"MS","decayEnergy":"0.350","decayModes":"IT","zp":"<1","halfLife":"3.3m","nn":"","nuclearSpin":"1\/2-","daughterIsotopes":"Tc91","isotopicComposition":"Syn","atomicMass":"0.350MeV"},{"nuclideSymbol":"","decayEnergy":"6.570","decayModes":"ξ","zp":"","halfLife":"3.3m","nn":"","nuclearSpin":"","daughterIsotopes":"Mo91","isotopicComposition":"","atomicMass":""},{"nuclideSymbol":"Tc92","decayEnergy":"7.870","decayModes":"ξ","zp":"","halfLife":"4.23m","nn":"49","nuclearSpin":"8+","daughterIsotopes":"Mo92","isotopicComposition":"Syn","atomicMass":"91.9153"},{"nuclideSymbol":"Tc93","decayEnergy":"3.201","decayModes":"ξ","zp":"","halfLife":"2.75h","nn":"50","nuclearSpin":"9\/2+","daughterIsotopes":"Mo93","isotopicComposition":"Syn","atomicMass":"92.9103"},{"nuclideSymbol":"MS","decayEnergy":"0.392","decayModes":"IT","zp":"76.6","halfLife":"43.5m","nn":"","nuclearSpin":"1\/2-","daughterIsotopes":"","isotopicComposition":"Syn","atomicMass":"0.391MeV"},{"nuclideSymbol":"","decayEnergy":"3.593","decayModes":"ξ","zp":"23.4","halfLife":"43.5m","nn":"","nuclearSpin":"","daughterIsotopes":"Mo93","isotopicComposition":"","atomicMass":""},{"nuclideSymbol":"MS","decayEnergy":"2.185","decayModes":"IT","zp":"","halfLife":"10.2us","nn":"","nuclearSpin":"17\/2-","daughterIsotopes":"","isotopicComposition":"Syn","atomicMass":"2.185MeV"},{"nuclideSymbol":"Tc94","decayEnergy":"4.256","decayModes":"ξ","zp":"","halfLife":"293m","nn":"51","nuclearSpin":"7+","daughterIsotopes":"Mo94","isotopicComposition":"Syn","atomicMass":"93.9097"},{"nuclideSymbol":"MS","decayEnergy":"0.075","decayModes":"IT","zp":"<0.1","halfLife":"52m","nn":"","nuclearSpin":"2+","daughterIsotopes":"Tc94","isotopicComposition":"Syn","atomicMass":"0.075MeV"},{"nuclideSymbol":"","decayEnergy":"4.331","decayModes":"ξ","zp":"","halfLife":"52m","nn":"","nuclearSpin":"","daughterIsotopes":"Mo94","isotopicComposition":"","atomicMass":""},{"nuclideSymbol":"Tc95","decayEnergy":"1.691","decayModes":"ξ","zp":"","halfLife":"20h","nn":"52","nuclearSpin":"9\/2+","daughterIsotopes":"Mo95","isotopicComposition":"Syn","atomicMass":"94.9077"},{"nuclideSymbol":"MS","decayEnergy":"1.730","decayModes":"ξ","zp":"6.12","halfLife":"61d","nn":"","nuclearSpin":"1\/2-","daughterIsotopes":"Mo95\t9","isotopicComposition":"Syn","atomicMass":"0.038MeV"},{"nuclideSymbol":"","decayEnergy":"0.039","decayModes":"IT","zp":"2.88","halfLife":"61d","nn":"","nuclearSpin":"","daughterIsotopes":"","isotopicComposition":"","atomicMass":""},{"nuclideSymbol":"Tc96","decayEnergy":"2.973","decayModes":"ξ","zp":"","halfLife":"4.28d","nn":"53","nuclearSpin":"7+","daughterIsotopes":"Mo96","isotopicComposition":"Syn","atomicMass":"95.9079"},{"nuclideSymbol":"MS","decayEnergy":"0.034","decayModes":"IT","zp":"98","halfLife":"51.5m","nn":"","nuclearSpin":"4+","daughterIsotopes":"","isotopicComposition":"Syn","atomicMass":"0.034MeV"},{"nuclideSymbol":"","decayEnergy":"3.007","decayModes":"ξ","zp":"2","halfLife":"51.5m","nn":"","nuclearSpin":"","daughterIsotopes":"Mo96","isotopicComposition":"","atomicMass":""},{"nuclideSymbol":"Tc97","decayEnergy":"0.320","decayModes":"ξ","zp":"","halfLife":"2600000y","nn":"54","nuclearSpin":"9\/2+","daughterIsotopes":"Mo97","isotopicComposition":"Syn","atomicMass":"96.9064"},{"nuclideSymbol":"MS","decayEnergy":"0.417","decayModes":"ξ","zp":"<0.34","halfLife":"90.1d","nn":"","nuclearSpin":"1\/2-","daughterIsotopes":"Mo97","isotopicComposition":"Syn","atomicMass":"0.097MeV"},{"nuclideSymbol":"","decayEnergy":"0.097","decayModes":"IT","zp":"","halfLife":"90.1d","nn":"","nuclearSpin":"","daughterIsotopes":"","isotopicComposition":"","atomicMass":""},{"nuclideSymbol":"Tc98","decayEnergy":"1.796","decayModes":"β-","zp":"","halfLife":"4200000y","nn":"55","nuclearSpin":"6+","daughterIsotopes":"Ru98","isotopicComposition":"Syn","atomicMass":"97.9072"},{"nuclideSymbol":"Tc99","decayEnergy":"0.294","decayModes":"β-","zp":"","halfLife":"211100y","nn":"56","nuclearSpin":"9\/2+","daughterIsotopes":"Ru99","isotopicComposition":"Syn","atomicMass":"98.9063"},{"nuclideSymbol":"MS","decayEnergy":"0.437","decayModes":"β-","zp":"0.0037","halfLife":"6.01h","nn":"","nuclearSpin":"1\/2-","daughterIsotopes":"Ru99","isotopicComposition":"Syn","atomicMass":"0.143MeV"},{"nuclideSymbol":"","decayEnergy":"0.143","decayModes":"IT","zp":"","halfLife":"6.01h","nn":"","nuclearSpin":"","daughterIsotopes":"","isotopicComposition":"","atomicMass":""},{"nuclideSymbol":"Tc100","decayEnergy":"0.168","decayModes":"ξ","zp":"0.0018","halfLife":"15.8s","nn":"57","nuclearSpin":"1+","daughterIsotopes":"Mo100","isotopicComposition":"Syn","atomicMass":"99.9077"},{"nuclideSymbol":"","decayEnergy":"3.202","decayModes":"β-","zp":"","halfLife":"15.8s","nn":"","nuclearSpin":"","daughterIsotopes":"Ru100","isotopicComposition":"","atomicMass":""},{"nuclideSymbol":"Tc101","decayEnergy":"1.614","decayModes":"β-","zp":"","halfLife":"14.22m","nn":"58","nuclearSpin":"9\/2+","daughterIsotopes":"Ru101","isotopicComposition":"Syn","atomicMass":"100.9073"},{"nuclideSymbol":"Tc102","decayEnergy":"4.530","decayModes":"β-","zp":"","halfLife":"5.28s","nn":"59","nuclearSpin":"1+","daughterIsotopes":"Ru102","isotopicComposition":"Syn","atomicMass":"101.9092"},{"nuclideSymbol":"MS","decayEnergy":"4.530","decayModes":"β-","zp":"98","halfLife":"4.35m","nn":"","nuclearSpin":"4, 5","daughterIsotopes":"Ru102","isotopicComposition":"Syn","atomicMass":"0.000MeV"},{"nuclideSymbol":"","decayEnergy":"","decayModes":"IT","zp":"2","halfLife":"4.35m","nn":"","nuclearSpin":"","daughterIsotopes":"","isotopicComposition":"","atomicMass":""},{"nuclideSymbol":"Tc103","decayEnergy":"2.660","decayModes":"β-","zp":"","halfLife":"54.2s","nn":"60","nuclearSpin":"5\/2+","daughterIsotopes":"Ru103","isotopicComposition":"Syn","atomicMass":"102.9092"},{"nuclideSymbol":"Tc104","decayEnergy":"5.600","decayModes":"β-","zp":"","halfLife":"18.3m","nn":"61","nuclearSpin":"3+","daughterIsotopes":"Ru104","isotopicComposition":"Syn","atomicMass":"103.9114"},{"nuclideSymbol":"Tc105","decayEnergy":"3.640","decayModes":"β-","zp":"","halfLife":"7.6m","nn":"62","nuclearSpin":"5\/2+","daughterIsotopes":"Ru105","isotopicComposition":"Syn","atomicMass":"104.9117"},{"nuclideSymbol":"Tc106","decayEnergy":"6.547","decayModes":"β-","zp":"","halfLife":"35.6s","nn":"63","nuclearSpin":"1, 2","daughterIsotopes":"Ru106","isotopicComposition":"Syn","atomicMass":"105.9144"},{"nuclideSymbol":"Tc107","decayEnergy":"4.820","decayModes":"β-","zp":"","halfLife":"21.2s","nn":"64","nuclearSpin":"","daughterIsotopes":"Ru107","isotopicComposition":"Syn","atomicMass":"106.915"},{"nuclideSymbol":"Tc108","decayEnergy":"7.720","decayModes":"β-","zp":"","halfLife":"5.17s","nn":"65","nuclearSpin":"2+","daughterIsotopes":"Ru108","isotopicComposition":"Syn","atomicMass":"107.918"},{"nuclideSymbol":"Tc109","decayEnergy":"5.990","decayModes":"β-","zp":"","halfLife":"0.87s","nn":"66","nuclearSpin":"","daughterIsotopes":"Ru109","isotopicComposition":"Syn","atomicMass":"108.92"},{"nuclideSymbol":"Tc110","decayEnergy":"8.800","decayModes":"β-","zp":"","halfLife":"0.92s","nn":"67","nuclearSpin":"1+, 2+","daughterIsotopes":"Ru110","isotopicComposition":"Syn","atomicMass":"109.923"},{"nuclideSymbol":"Tc111","decayEnergy":"7.000","decayModes":"β-","zp":"","halfLife":"0.3s","nn":"68","nuclearSpin":"","daughterIsotopes":"Ru111","isotopicComposition":"Syn","atomicMass":"110.925"},{"nuclideSymbol":"Tc112","decayEnergy":"10.000","decayModes":"β-","zp":"","halfLife":"0.28s","nn":"69","nuclearSpin":"","daughterIsotopes":"Ru112","isotopicComposition":"Syn","atomicMass":"111.929"},{"nuclideSymbol":"Tc113","decayEnergy":"8.200","decayModes":"β-","zp":"","halfLife":"130ms","nn":"70","nuclearSpin":"","daughterIsotopes":"Ru113","isotopicComposition":"Syn","atomicMass":"112.931"},{"nuclideSymbol":"Tc114","decayEnergy":"","decayModes":"","zp":"","halfLife":">150ns","nn":"71","nuclearSpin":"","daughterIsotopes":"","isotopicComposition":"Syn","atomicMass":"113.936"},{"nuclideSymbol":"Tc115","decayEnergy":"","decayModes":"","zp":"","halfLife":">150ns","nn":"72","nuclearSpin":"","daughterIsotopes":"","isotopicComposition":"Syn","atomicMass":"114.938"}],"elasticModulusYoungs":"","atomicMassFootnote":"a","incompatibilities":"","fillingOrbital":[{"4d":"6"}],"atomicRadius":"1.95","enthalpyOfVaporization":"660","heatOfVaporization":"660","hardnessScaleBrinell":"","group":"7","atomicNumber":43,"relativeGasDensity":"","ionizationPotentialThird":"29.54","crossSection":"","electroChemicalEquivalent":"0.51651","electronConfiguration":{"4p":"6","5s":"2","3p":"6","4s":"2","2p":"6","3s":"2","2s":"2","3d":"10","1s":"2","4d":"5"},"criticalTemperature":"","heatOfFusion":"24"}