{"hardnessScaleMohs":"2.25","opticalReflectivity":"50","meltingPointFootnote":"","conductivityElectrical":"0.000002","standardCondition":"Solid","crystalStructure":"Hexagonal","coefficientOfLinealThermalExpansion":"0.00001675","flammabilityClass":"Combustible Solid","molarHeatCapacity":"25.73","numberOfNeutrons":"76","series":"Non Metal","vaporPressure":{"pa100k":"992.4","pa100kFootnote":"","pa100Footnote":"e","pa100":"502","pa1Footnote":"","pa1":"","pa1kFootnote":"e","pa1k":"615","pa10kFootnote":"","pa10Footnote":"","pa10k":"768.8","pa10":""},"casRegistryNumber":"13494-80-9","oxidationStates":"±2, 4, 6","lineSpectra":[{"intensity":"0","airWavelength":"0","spectrum":"TBD"}],"numberOfElectrons":"52","magneticSusceptibility":"-38","atomicVolume":"20.5","abundanceCrust":"1x10⁻³","boilingPoint":"988","discoveryYear":"1782","electroNegativity":"2.1","meltingPoint":"449.51","elasticModulusBulk":"65","boilingPointFootnote":"","ionizationPotentialSecond":"18.6","conductivityThermal":"0.0235","discoveryLocation":"Romania","descr":"Tasteless, colorless, odorless and extremely flammable gas.","elasticModulusRigidity":"16","discoverer":"Franz Müller von Reichenstein","ionicRadius":"0.97","numberOfProtons":"52","abundanceSea":"","atomicMass":"127.60","molarVolume":"20.42","ionizationPotentialFirst":"9.009","hardnessScaleVickers":"","enthalpyOfAtomization":"190.4","density":"6.24","enthalpyOfFusion":"17.49","opticalRefractiveIndex":"1.000991","qualitativeSolubility":"insoluble in H₂0, benzene, CS₂","name":"Tellurium","specificHeat":"0.202","atomicMassUncertainty":3,"valenceElectronPotential":"59","covalentRadius":"1.36","electronWorkFunction":"4.95","valenceElectrons":[{"5s":"2"},{"5p":"4"}],"atomicMassKnownAccurately":true,"period":"5","symbol":"Te","nuclidesAndIsotopes":[{"nuclideSymbol":"","decayEnergy":"","decayModes":"","zp":"","halfLife":"","nn":"","nuclearSpin":"","daughterIsotopes":"","isotopicComposition":"","atomicMass":""}],"elasticModulusYoungs":"43","atomicMassFootnote":"g","incompatibilities":"Oxidizers, chlorine, cadmium","fillingOrbital":[{"5p":"4"}],"atomicRadius":"1.42","enthalpyOfVaporization":"50.6","heatOfVaporization":"52.55","hardnessScaleBrinell":"180","group":"16","atomicNumber":52,"relativeGasDensity":"","ionizationPotentialThird":"27.96","crossSection":"4.7","electroChemicalEquivalent":"1.1902","electronConfiguration":{"4p":"6","5s":"2","3p":"6","4s":"2","2p":"6","3s":"2","2s":"2","3d":"10","1s":"2","4d":"10","5p":"4"},"criticalTemperature":"","heatOfFusion":"17.49"}