{"hardnessScaleMohs":"3","opticalReflectivity":"","meltingPointFootnote":"","conductivityElectrical":"0.0653","standardCondition":"Solid","crystalStructure":"CubicFace","coefficientOfLinealThermalExpansion":"0.0000125","flammabilityClass":"","molarHeatCapacity":"26.230","numberOfNeutrons":"142","series":"Actinide","vaporPressure":{"pa100k":"4782","pa100kFootnote":"","pa100Footnote":"","pa100":"2975","pa1Footnote":"","pa1":"2360","pa1kFootnote":"","pa1k":"3410","pa10kFootnote":"","pa10Footnote":"","pa10k":"3986","pa10":"2634"},"casRegistryNumber":"7440-29-1","oxidationStates":"4","lineSpectra":[{"intensity":"0","airWavelength":"0","spectrum":"TBD"}],"numberOfElectrons":"90","magneticSusceptibility":"+97","atomicVolume":"19.9","abundanceCrust":"9.6","boilingPoint":"4788","discoveryYear":"1828","electroNegativity":"1.3","meltingPoint":"1750","elasticModulusBulk":"54","boilingPointFootnote":"","ionizationPotentialSecond":"11.504","conductivityThermal":"0.54","discoveryLocation":"Sweden","descr":"Soft silvery radioactive metal.","elasticModulusRigidity":"31","discoverer":"Jöns Jakob Berzelius","ionicRadius":"0.972","numberOfProtons":"90","abundanceSea":"1x10⁻⁶","atomicMass":"232.0381","molarVolume":"19.8","ionizationPotentialFirst":"6.08","hardnessScaleVickers":"350","enthalpyOfAtomization":"565","density":"11.7","enthalpyOfFusion":"15.65","opticalRefractiveIndex":"","qualitativeSolubility":"soluble in acid","name":"Thorium","specificHeat":"0.113","atomicMassUncertainty":1,"valenceElectronPotential":"59.3","covalentRadius":"1.65","electronWorkFunction":"3.41","valenceElectrons":[{"6d":"2"},{"7s":"2"}],"atomicMassKnownAccurately":true,"period":"7","symbol":"Th","nuclidesAndIsotopes":[{"nuclideSymbol":"","decayEnergy":"","decayModes":"","zp":"","halfLife":"","nn":"","nuclearSpin":"","daughterIsotopes":"","isotopicComposition":"","atomicMass":""}],"elasticModulusYoungs":"79","atomicMassFootnote":"g","incompatibilities":"","fillingOrbital":[{"6d":"2"}],"atomicRadius":"","enthalpyOfVaporization":"543.9","heatOfVaporization":"514.4","hardnessScaleBrinell":"400","group":"","atomicNumber":90,"relativeGasDensity":"","ionizationPotentialThird":"20.003","crossSection":"74","electroChemicalEquivalent":"2.1643","electronConfiguration":{"3d":"10","5s":"2","4s":"2","6p":"6","3s":"2","4f":"14","5p":"6","2s":"2","4p":"6","1s":"2","3p":"6","6d":"2","2p":"6","5d":"10","7s":"2","4d":"10","6s":"2"},"criticalTemperature":"","heatOfFusion":"16.1"}