{"hardnessScaleMohs":"6","opticalReflectivity":"","meltingPointFootnote":"","conductivityElectrical":"0.0234","standardCondition":"Solid","crystalStructure":"Hexagonal","coefficientOfLinealThermalExpansion":"0.00000841","flammabilityClass":"","molarHeatCapacity":"25.060","numberOfNeutrons":"26","series":"Transition Metal","vaporPressure":{"pa10":"1898","pa100kFootnote":"","pa100Footnote":"e","pa100":"2130","pa1Footnote":"","pa1":"1709","pa1kFootnote":"","pa1k":"2419","pa10kFootnote":"","pa10Footnote":"","pa10k":"2791","pa100k":"3285"},"casRegistryNumber":"7440-32-6","oxidationStates":"4","lineSpectra":[{"intensity":"150","airWavelength":"4024.5710","spectrum":"Ti I"},{"intensity":"25","airWavelength":"4030.5110","spectrum":"Ti I"},{"intensity":"40","airWavelength":"4055.0110","spectrum":"Ti I"},{"intensity":"50","airWavelength":"4060.2620","spectrum":"Ti I"},{"intensity":"25","airWavelength":"4064.2090","spectrum":"Ti I"},{"intensity":"25","airWavelength":"4065.0950","spectrum":"Ti I"},{"intensity":"110","airWavelength":"4078.4700","spectrum":"Ti I"},{"intensity":"40","airWavelength":"4082.4550","spectrum":"Ti I"},{"intensity":"30","airWavelength":"4112.7080","spectrum":"Ti I"},{"intensity":"50","airWavelength":"4186.1170","spectrum":"Ti I"},{"intensity":"40","airWavelength":"4263.1330","spectrum":"Ti I"},{"intensity":"30","airWavelength":"4274.5880","spectrum":"Ti I"},{"intensity":"30","airWavelength":"4282.6980","spectrum":"Ti I"},{"intensity":"110","airWavelength":"4286.0030","spectrum":"Ti I"},{"intensity":"110","airWavelength":"4287.4020","spectrum":"Ti I"},{"intensity":"120","airWavelength":"4289.0700","spectrum":"Ti I"},{"intensity":"110","airWavelength":"4290.9290","spectrum":"Ti I"},{"intensity":"110","airWavelength":"4295.7480","spectrum":"Ti I"},{"intensity":"250","airWavelength":"4298.6650","spectrum":"Ti I"},{"intensity":"25","airWavelength":"4299.2020","spectrum":"Ti I"},{"intensity":"25","airWavelength":"4299.6290","spectrum":"Ti I"},{"intensity":"400","airWavelength":"4300.5540","spectrum":"Ti I"},{"intensity":"500","airWavelength":"4301.0790","spectrum":"Ti I"},{"intensity":"800","airWavelength":"4305.9070","spectrum":"Ti I"},{"intensity":"150","airWavelength":"4314.8000","spectrum":"Ti I"},{"intensity":"50","airWavelength":"4318.6290","spectrum":"Ti I"},{"intensity":"25","airWavelength":"4325.1260","spectrum":"Ti I"},{"intensity":"20","airWavelength":"4393.9220","spectrum":"Ti I"},{"intensity":"30","airWavelength":"4395.0040","spectrum":"Ti II"},{"intensity":"30","airWavelength":"4417.2730","spectrum":"Ti I"},{"intensity":"110","airWavelength":"4427.0980","spectrum":"Ti I"},{"intensity":"110","airWavelength":"4449.1430","spectrum":"Ti I"},{"intensity":"70","airWavelength":"4450.8940","spectrum":"Ti I"},{"intensity":"110","airWavelength":"4453.3120","spectrum":"Ti I"},{"intensity":"40","airWavelength":"4453.6980","spectrum":"Ti I"},{"intensity":"120","airWavelength":"4455.3170","spectrum":"Ti I"},{"intensity":"140","airWavelength":"4457.4260","spectrum":"Ti I"},{"intensity":"40","airWavelength":"4465.8050","spectrum":"Ti I"},{"intensity":"30","airWavelength":"4471.2360","spectrum":"Ti I"},{"intensity":"70","airWavelength":"4481.2580","spectrum":"Ti I"},{"intensity":"30","airWavelength":"4489.0870","spectrum":"Ti I"},{"intensity":"30","airWavelength":"4496.1450","spectrum":"Ti I"},{"intensity":"100","airWavelength":"4512.7330","spectrum":"Ti I"},{"intensity":"130","airWavelength":"4518.0210","spectrum":"Ti I"},{"intensity":"130","airWavelength":"4522.7960","spectrum":"Ti I"},{"intensity":"100","airWavelength":"4527.3050","spectrum":"Ti I"},{"intensity":"800","airWavelength":"4533.2390","spectrum":"Ti I"},{"intensity":"500","airWavelength":"4534.7750","spectrum":"Ti I"},{"intensity":"300","airWavelength":"4535.5670","spectrum":"Ti I"},{"intensity":"150","airWavelength":"4535.9180","spectrum":"Ti I"},{"intensity":"150","airWavelength":"4536.0390","spectrum":"Ti I"},{"intensity":"90","airWavelength":"4544.6870","spectrum":"Ti I"},{"intensity":"120","airWavelength":"4548.7630","spectrum":"Ti I"},{"intensity":"15","airWavelength":"4549.8400","spectrum":"Ti III"},{"intensity":"120","airWavelength":"4552.4530","spectrum":"Ti I"},{"intensity":"90","airWavelength":"4555.4830","spectrum":"Ti I"},{"intensity":"15","airWavelength":"4572.2000","spectrum":"Ti III"},{"intensity":"120","airWavelength":"4617.2680","spectrum":"Ti I"},{"intensity":"60","airWavelength":"4623.0970","spectrum":"Ti I"},{"intensity":"25","airWavelength":"4629.3360","spectrum":"Ti I"},{"intensity":"30","airWavelength":"4639.3600","spectrum":"Ti I"},{"intensity":"30","airWavelength":"4639.6600","spectrum":"Ti I"},{"intensity":"25","airWavelength":"4639.9390","spectrum":"Ti I"},{"intensity":"90","airWavelength":"4656.4680","spectrum":"Ti I"},{"intensity":"110","airWavelength":"4667.5840","spectrum":"Ti I"},{"intensity":"120","airWavelength":"4681.9080","spectrum":"Ti I"},{"intensity":"25","airWavelength":"4691.3310","spectrum":"Ti I"},{"intensity":"25","airWavelength":"4698.7600","spectrum":"Ti I"},{"intensity":"40","airWavelength":"4758.1180","spectrum":"Ti I"},{"intensity":"40","airWavelength":"4759.2690","spectrum":"Ti I"},{"intensity":"25","airWavelength":"4820.4100","spectrum":"Ti I"},{"intensity":"60","airWavelength":"4840.8730","spectrum":"Ti I"},{"intensity":"40","airWavelength":"4856.0100","spectrum":"Ti I"},{"intensity":"25","airWavelength":"4868.2590","spectrum":"Ti I"},{"intensity":"30","airWavelength":"4870.1270","spectrum":"Ti I"},{"intensity":"50","airWavelength":"4885.0810","spectrum":"Ti I"},{"intensity":"50","airWavelength":"4899.9080","spectrum":"Ti I"},{"intensity":"40","airWavelength":"4913.6150","spectrum":"Ti I"},{"intensity":"700","airWavelength":"4981.7300","spectrum":"Ti I"},{"intensity":"600","airWavelength":"4991.0660","spectrum":"Ti I"},{"intensity":"500","airWavelength":"4999.5010","spectrum":"Ti I"},{"intensity":"30","airWavelength":"5000.9880","spectrum":"Ti I"},{"intensity":"500","airWavelength":"5007.2060","spectrum":"Ti I"},{"intensity":"30","airWavelength":"5013.2810","spectrum":"Ti I"},{"intensity":"400","airWavelength":"5014.1860","spectrum":"Ti I"},{"intensity":"300","airWavelength":"5014.2750","spectrum":"Ti I"},{"intensity":"70","airWavelength":"5016.1600","spectrum":"Ti I"},{"intensity":"110","airWavelength":"5020.0240","spectrum":"Ti I"},{"intensity":"110","airWavelength":"5022.8660","spectrum":"Ti I"},{"intensity":"70","airWavelength":"5024.8430","spectrum":"Ti I"},{"intensity":"40","airWavelength":"5025.5690","spectrum":"Ti I"},{"intensity":"150","airWavelength":"5035.9020","spectrum":"Ti I"},{"intensity":"110","airWavelength":"5036.4630","spectrum":"Ti I"},{"intensity":"90","airWavelength":"5038.3960","spectrum":"Ti I"},{"intensity":"150","airWavelength":"5039.9550","spectrum":"Ti I"},{"intensity":"200","airWavelength":"5064.6510","spectrum":"Ti I"},{"intensity":"25","airWavelength":"5113.4390","spectrum":"Ti I"},{"intensity":"30","airWavelength":"5120.4150","spectrum":"Ti I"},{"intensity":"30","airWavelength":"5145.4590","spectrum":"Ti I"},{"intensity":"30","airWavelength":"5147.4770","spectrum":"Ti I"},{"intensity":"25","airWavelength":"5152.1840","spectrum":"Ti I"},{"intensity":"140","airWavelength":"5173.7400","spectrum":"Ti I"},{"intensity":"150","airWavelength":"5192.9690","spectrum":"Ti I"},{"intensity":"200","airWavelength":"5210.3840","spectrum":"Ti I"},{"intensity":"30","airWavelength":"5224.3040","spectrum":"Ti I"},{"intensity":"25","airWavelength":"5224.9330","spectrum":"Ti I"},{"intensity":"17","airWavelength":"5278.1200","spectrum":"Ti III"},{"intensity":"20","airWavelength":"5398.9300","spectrum":"Ti IV"},{"intensity":"40","airWavelength":"5512.5230","spectrum":"Ti I"},{"intensity":"30","airWavelength":"5514.3430","spectrum":"Ti I"},{"intensity":"40","airWavelength":"5514.5310","spectrum":"Ti I"},{"intensity":"30","airWavelength":"5644.1320","spectrum":"Ti I"},{"intensity":"25","airWavelength":"5662.1470","spectrum":"Ti I"},{"intensity":"50","airWavelength":"5866.4480","spectrum":"Ti I"},{"intensity":"30","airWavelength":"5899.2910","spectrum":"Ti I"},{"intensity":"40","airWavelength":"5953.1560","spectrum":"Ti I"},{"intensity":"25","airWavelength":"5965.8240","spectrum":"Ti I"},{"intensity":"30","airWavelength":"5978.5380","spectrum":"Ti I"},{"intensity":"40","airWavelength":"5999.0080","spectrum":"Ti I"},{"intensity":"17","airWavelength":"6246.6500","spectrum":"Ti IV"},{"intensity":"50","airWavelength":"6258.0990","spectrum":"Ti I"},{"intensity":"50","airWavelength":"6258.7050","spectrum":"Ti I"},{"intensity":"40","airWavelength":"6261.0960","spectrum":"Ti I"},{"intensity":"18","airWavelength":"6621.5800","spectrum":"Ti III"},{"intensity":"18","airWavelength":"6667.9900","spectrum":"Ti III"}],"numberOfElectrons":"22","magneticSusceptibility":"+151","atomicVolume":"10.64","abundanceCrust":"5.65x10³","boilingPoint":"3287","discoveryYear":"1791","electroNegativity":"1.54","meltingPoint":"1668","elasticModulusBulk":"110","boilingPointFootnote":"","ionizationPotentialSecond":"13.58","conductivityThermal":"0.219","discoveryLocation":"England","descr":"Pure titanium is a lustrous white metal, as strong as steel, 45% lighter, 60%heavieer than aluminum, and twice as strong as aluminum.","elasticModulusRigidity":"44","discoverer":"William Gregor","ionicRadius":"0.605","numberOfProtons":"22","abundanceSea":"1x10⁻³","atomicMass":"47.867","ionizationPotentialFirst":"6.82","molarVolume":"10.64","hardnessScaleVickers":"970","enthalpyOfAtomization":"468.6","density":"4.506","enthalpyOfFusion":"15.48","opticalRefractiveIndex":"","qualitativeSolubility":"","name":"Titanium","specificHeat":"0.523","atomicMassUncertainty":1,"valenceElectronPotential":"95.2","covalentRadius":"1.32","electronWorkFunction":"4.33","valenceElectrons":[{"3d":"2"},{"4s":"2"}],"atomicMassKnownAccurately":true,"period":"4","symbol":"Ti","nuclidesAndIsotopes":[{"nuclideSymbol":"Ti38","decayEnergy":"","decayModes":"","zp":"","halfLife":"","nn":"16","nuclearSpin":"0+","daughterIsotopes":"","isotopicComposition":"Syn","atomicMass":"38.01"},{"nuclideSymbol":"Ti39","decayEnergy":"","decayModes":"","zp":"","halfLife":"26ms","nn":"17","nuclearSpin":"3\/2+","daughterIsotopes":"","isotopicComposition":"Syn","atomicMass":"39.001"},{"nuclideSymbol":"Ti40","decayEnergy":"11.680","decayModes":"ξ","zp":"","halfLife":"50ms","nn":"18","nuclearSpin":"0+","daughterIsotopes":"Sc40","isotopicComposition":"Syn","atomicMass":"39.99"},{"nuclideSymbol":"","decayEnergy":"11.140","decayModes":"ξ + P","zp":"","halfLife":"50ms","nn":"","nuclearSpin":"","daughterIsotopes":"Ca39","isotopicComposition":"","atomicMass":""},{"nuclideSymbol":"Ti41","decayEnergy":"11.840","decayModes":"ξ + P","zp":"~100","halfLife":"80ms","nn":"19","nuclearSpin":"3\/2+","daughterIsotopes":"Ca40","isotopicComposition":"Syn","atomicMass":"40.9831"},{"nuclideSymbol":"","decayEnergy":"12.930","decayModes":"ξ","zp":"","halfLife":"80ms","nn":"","nuclearSpin":"","daughterIsotopes":"Sc41","isotopicComposition":"","atomicMass":""},{"nuclideSymbol":"Ti42","decayEnergy":"7.000","decayModes":"ξ","zp":"","halfLife":"199ms","nn":"20","nuclearSpin":"0+","daughterIsotopes":"Sc42","isotopicComposition":"Syn","atomicMass":"41.973"},{"nuclideSymbol":"Ti43","decayEnergy":"6.867","decayModes":"ξ","zp":"","halfLife":"509ms","nn":"21","nuclearSpin":"7\/2-","daughterIsotopes":"Sc43","isotopicComposition":"Syn","atomicMass":"42.9685"},{"nuclideSymbol":"Ti44","decayEnergy":"0.268","decayModes":"ξ","zp":"","halfLife":"63y","nn":"22","nuclearSpin":"0+","daughterIsotopes":"Sc44","isotopicComposition":"Syn","atomicMass":"43.9597"},{"nuclideSymbol":"Ti45","decayEnergy":"2.062","decayModes":"ξ","zp":"","halfLife":"184.8m","nn":"23","nuclearSpin":"7\/2-","daughterIsotopes":"Sc45","isotopicComposition":"Syn","atomicMass":"44.9581"},{"nuclideSymbol":"Ti46","decayEnergy":"","decayModes":"","zp":"","halfLife":"Stable","nn":"24","nuclearSpin":"0+","daughterIsotopes":"","isotopicComposition":"8","atomicMass":"45.9526"},{"nuclideSymbol":"Ti47","decayEnergy":"","decayModes":"","zp":"","halfLife":"Stable","nn":"25","nuclearSpin":"5\/2-","daughterIsotopes":"","isotopicComposition":"7.3","atomicMass":"46.9518"},{"nuclideSymbol":"Ti48","decayEnergy":"","decayModes":"","zp":"","halfLife":"Stable","nn":"26","nuclearSpin":"0+","daughterIsotopes":"","isotopicComposition":"73.8","atomicMass":"47.948"},{"nuclideSymbol":"Ti49","decayEnergy":"","decayModes":"","zp":"","halfLife":"Stable","nn":"27","nuclearSpin":"7\/2-","daughterIsotopes":"","isotopicComposition":"5.5","atomicMass":"48.9479"},{"nuclideSymbol":"Ti50","decayEnergy":"","decayModes":"","zp":"","halfLife":"Stable","nn":"28","nuclearSpin":"0+","daughterIsotopes":"","isotopicComposition":"5.4","atomicMass":"49.9448"},{"nuclideSymbol":"Ti51","decayEnergy":"2.471","decayModes":"β-","zp":"","halfLife":"5.76m","nn":"29","nuclearSpin":"3\/2-","daughterIsotopes":"V51","isotopicComposition":"Syn","atomicMass":"50.9466"},{"nuclideSymbol":"Ti52","decayEnergy":"1.973","decayModes":"β-","zp":"","halfLife":"1.7m","nn":"30","nuclearSpin":"0+","daughterIsotopes":"V52","isotopicComposition":"Syn","atomicMass":"51.9469"},{"nuclideSymbol":"Ti53","decayEnergy":"5.020","decayModes":"β-","zp":"","halfLife":"32.7s","nn":"31","nuclearSpin":"3\/2-","daughterIsotopes":"V53","isotopicComposition":"Syn","atomicMass":"52.95"},{"nuclideSymbol":"Ti54","decayEnergy":"4.120","decayModes":"β-","zp":"","halfLife":">1us","nn":"32","nuclearSpin":"0+","daughterIsotopes":"V54","isotopicComposition":"Syn","atomicMass":"53.951"},{"nuclideSymbol":"Ti55","decayEnergy":"","decayModes":"","zp":"","halfLife":"320ms","nn":"33","nuclearSpin":"3\/2-","daughterIsotopes":"","isotopicComposition":"Syn","atomicMass":"54.955"},{"nuclideSymbol":"Ti56","decayEnergy":"","decayModes":"","zp":"","halfLife":"160ms","nn":"34","nuclearSpin":"0+","daughterIsotopes":"","isotopicComposition":"Syn","atomicMass":"55.958"},{"nuclideSymbol":"Ti57","decayEnergy":"","decayModes":"","zp":"","halfLife":"180ms","nn":"35","nuclearSpin":"5\/2-","daughterIsotopes":"","isotopicComposition":"Syn","atomicMass":"56.96"},{"nuclideSymbol":"Ti58","decayEnergy":"8.800","decayModes":"β-","zp":"","halfLife":">150ns","nn":"36","nuclearSpin":"0+","daughterIsotopes":"V58","isotopicComposition":"Syn","atomicMass":"57.966"},{"nuclideSymbol":"Ti59","decayEnergy":"","decayModes":"","zp":"","halfLife":"","nn":"37","nuclearSpin":"5\/2-","daughterIsotopes":"","isotopicComposition":"Syn","atomicMass":"58.972"},{"nuclideSymbol":"Ti60","decayEnergy":"","decayModes":"","zp":"","halfLife":"","nn":"38","nuclearSpin":"0+","daughterIsotopes":"","isotopicComposition":"Syn","atomicMass":"59.976"},{"nuclideSymbol":"Ti61","decayEnergy":"","decayModes":"","zp":"","halfLife":"","nn":"39","nuclearSpin":"1\/2-","daughterIsotopes":"","isotopicComposition":"Syn","atomicMass":"60.982"}],"elasticModulusYoungs":"116","atomicMassFootnote":"","incompatibilities":"","fillingOrbital":[{"3d":"2"}],"atomicRadius":"2.0","enthalpyOfVaporization":"429","heatOfVaporization":"421","hardnessScaleBrinell":"716","group":"4","atomicNumber":22,"relativeGasDensity":"","ionizationPotentialThird":"27.491","crossSection":"6.1","electroChemicalEquivalent":"0.4468","electronConfiguration":{"3p":"6","4s":"2","2p":"6","3s":"2","2s":"2","3d":"2","1s":"2"},"criticalTemperature":"","heatOfFusion":"15.4"}