{"hardnessScaleMohs":"1.2","opticalReflectivity":"","meltingPointFootnote":"","conductivityElectrical":"0.0617","standardCondition":"Solid","crystalStructure":"Hexagonal","coefficientOfLinealThermalExpansion":"0.000028","flammabilityClass":"","molarHeatCapacity":"26.32","numberOfNeutrons":"123","series":"Metal","vaporPressure":{"pa100k":"1485","pa100kFootnote":"","pa100Footnote":"","pa100":"824","pa1Footnote":"","pa1":"609","pa1kFootnote":"","pa1k":"979","pa10kFootnote":"","pa10Footnote":"","pa10k":"1188","pa10":"704"},"casRegistryNumber":"7440-28-0","oxidationStates":"3, 1","lineSpectra":[{"intensity":"0","airWavelength":"0","spectrum":"TBD"}],"numberOfElectrons":"81","magneticSusceptibility":"-50","atomicVolume":"17.2","abundanceCrust":"8.5x10⁻¹","boilingPoint":"1473","discoveryYear":"1861","electroNegativity":"2.04","meltingPoint":"304","elasticModulusBulk":"43","boilingPointFootnote":"","ionizationPotentialSecond":"20.428","conductivityThermal":"0.461","discoveryLocation":"England","descr":"Soft bluish-gray or silvery white transition metal that looks like lead.","elasticModulusRigidity":"2.8","discoverer":"Sir William Crookes","ionicRadius":"1.5","numberOfProtons":"81","abundanceSea":"1.9x10⁻⁵","atomicMass":"204.3833","molarVolume":"17.25","ionizationPotentialFirst":"6.108","hardnessScaleVickers":"","enthalpyOfAtomization":"179.9","density":"11.8","enthalpyOfFusion":"4.27","opticalRefractiveIndex":"","qualitativeSolubility":"insoluble in H₂0; reacts with acids","name":"Thallium","specificHeat":"0.129","atomicMassUncertainty":2,"valenceElectronPotential":"9.6","covalentRadius":"1.48","electronWorkFunction":"3.84","valenceElectrons":[{"6s":"2"},{"6p":"1"}],"atomicMassKnownAccurately":true,"period":"6","symbol":"Tl","nuclidesAndIsotopes":[{"nuclideSymbol":"","decayEnergy":"","decayModes":"","zp":"","halfLife":"","nn":"","nuclearSpin":"","daughterIsotopes":"","isotopicComposition":"","atomicMass":""}],"elasticModulusYoungs":"8","atomicMassFootnote":"","incompatibilities":"","fillingOrbital":[{"6p":"1"}],"atomicRadius":"2.08","enthalpyOfVaporization":"162.1","heatOfVaporization":"164.1","hardnessScaleBrinell":"26.4","group":"13","atomicNumber":81,"relativeGasDensity":"","ionizationPotentialThird":"29.829","crossSection":"3.4","electroChemicalEquivalent":"7.625","electronConfiguration":{"3d":"10","5s":"2","4s":"2","6p":"1","3s":"2","4f":"14","5p":"6","2s":"2","4p":"6","1s":"2","3p":"6","2p":"6","5d":"10","4d":"10","6s":"2"},"criticalTemperature":"","heatOfFusion":"4.142"}