{"hardnessScaleMohs":"","opticalReflectivity":"","meltingPointFootnote":"","conductivityElectrical":"0.015","standardCondition":"Solid","crystalStructure":"Hexagonal","coefficientOfLinealThermalExpansion":"0.0000116","flammabilityClass":"","molarHeatCapacity":"27.03","numberOfNeutrons":"100","series":"Lanthanide","vaporPressure":{"pa100k":"1944","pa100kFootnote":"i","pa100Footnote":"s","pa100":"1108","pa1Footnote":"s","pa1":"844","pa1kFootnote":"s","pa1k":"1297","pa10kFootnote":"i","pa10Footnote":"s","pa10k":"1548","pa10":"962"},"casRegistryNumber":"7440-30-4","oxidationStates":"3, 2","lineSpectra":[{"intensity":"0","airWavelength":"0","spectrum":"TBD"}],"numberOfElectrons":"69","magneticSusceptibility":"+24700","atomicVolume":"18.1","abundanceCrust":"5.2x10⁻¹","boilingPoint":"1950","discoveryYear":"1879","electroNegativity":"1.25","meltingPoint":"1545","elasticModulusBulk":"45","boilingPointFootnote":"","ionizationPotentialSecond":"12.054","conductivityThermal":"0.168","discoveryLocation":"Sweden","descr":"Silver colored rare earth metal.","elasticModulusRigidity":"31","discoverer":"Per Theodor Cleve","ionicRadius":"0.869","numberOfProtons":"69","abundanceSea":"1.7x10⁻⁷","atomicMass":"168.93421","molarVolume":"18.12","ionizationPotentialFirst":"6.184","hardnessScaleVickers":"520","enthalpyOfAtomization":"247","density":"9.32","enthalpyOfFusion":"16.8","opticalRefractiveIndex":"","qualitativeSolubility":"soluble in diluted acid","name":"Thulium","specificHeat":"0.160","atomicMassUncertainty":2,"valenceElectronPotential":"49.7","covalentRadius":"1.56","electronWorkFunction":"","valenceElectrons":[{"4f":"13"},{"6s":"2"}],"atomicMassKnownAccurately":true,"period":"6","symbol":"Tm","nuclidesAndIsotopes":[{"nuclideSymbol":"","decayEnergy":"","decayModes":"","zp":"","halfLife":"","nn":"","nuclearSpin":"","daughterIsotopes":"","isotopicComposition":"","atomicMass":""}],"elasticModulusYoungs":"74","atomicMassFootnote":"","incompatibilities":"","fillingOrbital":[{"4f":"13"}],"atomicRadius":"2.42","enthalpyOfVaporization":"191","heatOfVaporization":"","hardnessScaleBrinell":"471","group":"","atomicNumber":69,"relativeGasDensity":"","ionizationPotentialThird":"26.367","crossSection":"115","electroChemicalEquivalent":"2.101","electronConfiguration":{"3d":"10","5s":"2","4s":"2","3s":"2","4f":"13","5p":"6","2s":"2","4p":"6","1s":"2","3p":"6","2p":"6","4d":"10","6s":"2"},"criticalTemperature":"","heatOfFusion":"16.84"}