{"hardnessScaleMohs":"","opticalReflectivity":"","meltingPointFootnote":"","conductivityElectrical":"","standardCondition":"Synthetic","crystalStructure":"Unknown","coefficientOfLinealThermalExpansion":"","flammabilityClass":"","molarHeatCapacity":"","numberOfNeutrons":"177","series":"Halogen","vaporPressure":{"pa100k":"","pa100kFootnote":"","pa100Footnote":"","pa100":"","pa1Footnote":"","pa1":"","pa1kFootnote":"","pa1k":"","pa10kFootnote":"","pa10Footnote":"","pa10k":"","pa10":""},"casRegistryNumber":"54101-14-3","oxidationStates":"","lineSpectra":[{"intensity":"0","airWavelength":"0","spectrum":"TBD"}],"numberOfElectrons":"117","magneticSusceptibility":"","atomicVolume":"","abundanceCrust":"","boilingPoint":"","discoveryYear":"2009–10","electroNegativity":"","meltingPoint":"","elasticModulusBulk":"","boilingPointFootnote":"","ionizationPotentialSecond":"","conductivityThermal":"","discoveryLocation":"Moscow Oblast, Russia","descr":"Man made element of which only a few atoms have ever been created.","elasticModulusRigidity":"","discoverer":"Dubna","ionicRadius":"","numberOfProtons":"117","abundanceSea":"","atomicMass":"294","molarVolume":"","ionizationPotentialFirst":"","hardnessScaleVickers":"","enthalpyOfAtomization":"","density":"","enthalpyOfFusion":"","opticalRefractiveIndex":"","qualitativeSolubility":"","name":"Tennesine","specificHeat":"","valenceElectronPotential":"","covalentRadius":"","electronWorkFunction":"","valenceElectrons":[{}],"atomicMassKnownAccurately":false,"period":"7","symbol":"Ts","nuclidesAndIsotopes":[{"nuclideSymbol":"","decayEnergy":"","decayModes":"","zp":"","halfLife":"","nn":"","nuclearSpin":"","daughterIsotopes":"","isotopicComposition":"","atomicMass":""}],"elasticModulusYoungs":"","atomicMassFootnote":"a","incompatibilities":"","fillingOrbital":[{}],"atomicRadius":"","enthalpyOfVaporization":"","heatOfVaporization":"","hardnessScaleBrinell":"","group":"17","atomicNumber":117,"relativeGasDensity":"","ionizationPotentialThird":"","crossSection":"","electroChemicalEquivalent":"","electronConfiguration":{"3d":"10","5s":"2","7p":"?","4s":"2","5f":"14","6p":"5","3s":"2","4f":"14","5p":"6","2s":"2","4p":"6","1s":"2","3p":"6","6d":"0","2p":"6","5d":"10","7s":"?","4d":"10","6s":"2"},"criticalTemperature":"","heatOfFusion":""}