{"hardnessScaleMohs":"6","opticalReflectivity":"","meltingPointFootnote":"","conductivityElectrical":"0.038","standardCondition":"Solid","crystalStructure":"Cubic","coefficientOfLinealThermalExpansion":"0.0000134","flammabilityClass":"Combustible Solid","molarHeatCapacity":"27.665","numberOfNeutrons":"146","series":"Actinide","vaporPressure":{"pa100k":"4129","pa100kFootnote":"","pa100Footnote":"","pa100":"2586","pa1Footnote":"","pa1":"2052","pa1kFootnote":"","pa1k":"2961","pa10kFootnote":"","pa10Footnote":"","pa10k":"3454","pa10":"2291"},"casRegistryNumber":"7440-61-1","oxidationStates":"6, 5, 4, 3","lineSpectra":[{"intensity":"0","airWavelength":"0","spectrum":"TBD"}],"numberOfElectrons":"92","magneticSusceptibility":"+409","atomicVolume":"12.59","abundanceCrust":"2.7","boilingPoint":"4131","discoveryYear":"1789","electroNegativity":"1.38","meltingPoint":"1135","elasticModulusBulk":"100","boilingPointFootnote":"","ionizationPotentialSecond":"","conductivityThermal":"0.276","discoveryLocation":"Germany","descr":"A very heavy silvery-white radioactive metal.","elasticModulusRigidity":"111","discoverer":"Martin Klaproth","ionicRadius":"0.52","numberOfProtons":"92","abundanceSea":"3.2x10⁻³","atomicMass":"238.02891","molarVolume":"12.49","ionizationPotentialFirst":"6.05","hardnessScaleVickers":"1960","enthalpyOfAtomization":"489.5","density":"19.1","enthalpyOfFusion":"15.48","opticalRefractiveIndex":"","qualitativeSolubility":"","name":"Uranium","specificHeat":"0.116","atomicMassUncertainty":3,"valenceElectronPotential":"170","covalentRadius":"1.42","electronWorkFunction":"3.63","valenceElectrons":[{"5f":"3"},{"6d":"1"},{"7s":"2"}],"atomicMassKnownAccurately":true,"period":"7","symbol":"U","nuclidesAndIsotopes":[{"nuclideSymbol":"","decayEnergy":"","decayModes":"","zp":"","halfLife":"","nn":"","nuclearSpin":"","daughterIsotopes":"","isotopicComposition":"","atomicMass":""}],"elasticModulusYoungs":"208","atomicMassFootnote":"g m","incompatibilities":"Carbon dioxide, carbon tetrachloride, nitric acid, fluorine","fillingOrbital":[{"5f":"3"}],"atomicRadius":"","enthalpyOfVaporization":"477","heatOfVaporization":"477","hardnessScaleBrinell":"2400","group":"","atomicNumber":92,"relativeGasDensity":"","ionizationPotentialThird":"","crossSection":"7.595","electroChemicalEquivalent":"1.4801","electronConfiguration":{"3d":"10","5s":"2","4s":"2","5f":"3","6p":"6","3s":"2","4f":"14","5p":"6","2s":"2","4p":"6","1s":"2","3p":"6","6d":"1","2p":"6","5d":"10","7s":"2","4d":"10","6s":"2"},"criticalTemperature":"","heatOfFusion":"8.52"}