{"hardnessScaleMohs":"7","opticalReflectivity":"61","meltingPointFootnote":"","conductivityElectrical":"0.0489","standardCondition":"Solid","crystalStructure":"CubicBody","coefficientOfLinealThermalExpansion":"0.00000615","flammabilityClass":"Non-combustible solid (except as dust)","molarHeatCapacity":"24.89","numberOfNeutrons":"28","series":"Transition Metal","vaporPressure":{"pa10":"2618","pa100kFootnote":"","pa100Footnote":"","pa100":"2924","pa1Footnote":"","pa1":"2366","pa1kFootnote":"","pa1k":"3302","pa10kFootnote":"","pa10Footnote":"","pa10k":"3780","pa100k":"4405"},"casRegistryNumber":"7440-62-2","oxidationStates":"","lineSpectra":[{"intensity":"30","airWavelength":"4050.9550","spectrum":"V I"},{"intensity":"30","airWavelength":"4051.3470","spectrum":"V I"},{"intensity":"25","airWavelength":"4057.0640","spectrum":"V I"},{"intensity":"20","airWavelength":"4063.9280","spectrum":"V I"},{"intensity":"20","airWavelength":"4071.5360","spectrum":"V I"},{"intensity":"90","airWavelength":"4090.5710","spectrum":"V I"},{"intensity":"150","airWavelength":"4092.6840","spectrum":"V I"},{"intensity":"70","airWavelength":"4095.4770","spectrum":"V I"},{"intensity":"250","airWavelength":"4099.7840","spectrum":"V I"},{"intensity":"50","airWavelength":"4102.1510","spectrum":"V I"},{"intensity":"20","airWavelength":"4104.3820","spectrum":"V I"},{"intensity":"20","airWavelength":"4104.7670","spectrum":"V I"},{"intensity":"250","airWavelength":"4105.1550","spectrum":"V I"},{"intensity":"200","airWavelength":"4109.7780","spectrum":"V I"},{"intensity":"700","airWavelength":"4111.7800","spectrum":"V I"},{"intensity":"20","airWavelength":"4113.5060","spectrum":"V I"},{"intensity":"400","airWavelength":"4115.1800","spectrum":"V I"},{"intensity":"150","airWavelength":"4116.4730","spectrum":"V I"},{"intensity":"20","airWavelength":"4119.4460","spectrum":"V I"},{"intensity":"150","airWavelength":"4123.5030","spectrum":"V I"},{"intensity":"250","airWavelength":"4128.0640","spectrum":"V I"},{"intensity":"250","airWavelength":"4131.9890","spectrum":"V I"},{"intensity":"200","airWavelength":"4134.4850","spectrum":"V I"},{"intensity":"20","airWavelength":"4179.4080","spectrum":"V I"},{"intensity":"20","airWavelength":"4200.3200","spectrum":"V V"},{"intensity":"20","airWavelength":"4209.8530","spectrum":"V I"},{"intensity":"30","airWavelength":"4232.4580","spectrum":"V I"},{"intensity":"50","airWavelength":"4268.6380","spectrum":"V I"},{"intensity":"40","airWavelength":"4271.5500","spectrum":"V I"},{"intensity":"40","airWavelength":"4276.9530","spectrum":"V I"},{"intensity":"40","airWavelength":"4284.0470","spectrum":"V I"},{"intensity":"30","airWavelength":"4291.8200","spectrum":"V I"},{"intensity":"40","airWavelength":"4330.0260","spectrum":"V I"},{"intensity":"40","airWavelength":"4332.8250","spectrum":"V I"},{"intensity":"60","airWavelength":"4341.0080","spectrum":"V I"},{"intensity":"80","airWavelength":"4352.8710","spectrum":"V I"},{"intensity":"1000","airWavelength":"4379.2300","spectrum":"V I"},{"intensity":"600","airWavelength":"4384.7100","spectrum":"V I"},{"intensity":"400","airWavelength":"4389.9800","spectrum":"V I"},{"intensity":"300","airWavelength":"4395.2230","spectrum":"V I"},{"intensity":"120","airWavelength":"4400.5720","spectrum":"V I"},{"intensity":"200","airWavelength":"4406.6380","spectrum":"V I"},{"intensity":"250","airWavelength":"4407.6330","spectrum":"V I"},{"intensity":"300","airWavelength":"4408.1950","spectrum":"V I"},{"intensity":"400","airWavelength":"4408.5010","spectrum":"V I"},{"intensity":"50","airWavelength":"4416.4690","spectrum":"V I"},{"intensity":"50","airWavelength":"4421.5660","spectrum":"V I"},{"intensity":"40","airWavelength":"4426.0020","spectrum":"V I"},{"intensity":"25","airWavelength":"4428.5170","spectrum":"V I"},{"intensity":"20","airWavelength":"4429.8000","spectrum":"V I"},{"intensity":"40","airWavelength":"4436.1330","spectrum":"V I"},{"intensity":"50","airWavelength":"4437.8300","spectrum":"V I"},{"intensity":"70","airWavelength":"4441.6800","spectrum":"V I"},{"intensity":"50","airWavelength":"4444.1920","spectrum":"V I"},{"intensity":"50","airWavelength":"4452.0060","spectrum":"V I"},{"intensity":"30","airWavelength":"4457.4700","spectrum":"V I"},{"intensity":"80","airWavelength":"4459.7520","spectrum":"V I"},{"intensity":"150","airWavelength":"4460.3310","spectrum":"V I"},{"intensity":"50","airWavelength":"4462.3600","spectrum":"V I"},{"intensity":"30","airWavelength":"4469.7050","spectrum":"V I"},{"intensity":"30","airWavelength":"4488.8890","spectrum":"V I"},{"intensity":"30","airWavelength":"4545.3950","spectrum":"V I"},{"intensity":"25","airWavelength":"4560.7160","spectrum":"V I"},{"intensity":"40","airWavelength":"4577.1780","spectrum":"V I"},{"intensity":"50","airWavelength":"4580.4030","spectrum":"V I"},{"intensity":"70","airWavelength":"4586.3700","spectrum":"V I"},{"intensity":"110","airWavelength":"4594.1190","spectrum":"V I"},{"intensity":"20","airWavelength":"4619.7770","spectrum":"V I"},{"intensity":"25","airWavelength":"4851.4890","spectrum":"V I"},{"intensity":"40","airWavelength":"4864.7330","spectrum":"V I"},{"intensity":"50","airWavelength":"4875.4860","spectrum":"V I"},{"intensity":"60","airWavelength":"4881.5550","spectrum":"V I"},{"intensity":"30","airWavelength":"5627.6310","spectrum":"V I"},{"intensity":"25","airWavelength":"5670.8470","spectrum":"V I"},{"intensity":"100","airWavelength":"5698.5290","spectrum":"V I"},{"intensity":"80","airWavelength":"5703.5860","spectrum":"V I"},{"intensity":"50","airWavelength":"5706.9970","spectrum":"V I"},{"intensity":"70","airWavelength":"5727.0460","spectrum":"V I"},{"intensity":"20","airWavelength":"5731.2480","spectrum":"V I"},{"intensity":"20","airWavelength":"5737.0650","spectrum":"V I"},{"intensity":"40","airWavelength":"6039.7280","spectrum":"V I"},{"intensity":"40","airWavelength":"6081.4400","spectrum":"V I"},{"intensity":"110","airWavelength":"6090.2080","spectrum":"V I"},{"intensity":"25","airWavelength":"6111.6500","spectrum":"V I"},{"intensity":"50","airWavelength":"6119.5280","spectrum":"V I"},{"intensity":"25","airWavelength":"6135.3630","spectrum":"V I"},{"intensity":"40","airWavelength":"6199.1910","spectrum":"V I"},{"intensity":"40","airWavelength":"6216.3700","spectrum":"V I"},{"intensity":"40","airWavelength":"6230.8030","spectrum":"V I"},{"intensity":"60","airWavelength":"6243.1100","spectrum":"V I"},{"intensity":"25","airWavelength":"6251.8230","spectrum":"V I"}],"numberOfElectrons":"23","magneticSusceptibility":"+285","atomicVolume":"8.78","abundanceCrust":"1.20x10²","boilingPoint":"3407","discoveryYear":"1830","electroNegativity":"1.63","meltingPoint":"1910","elasticModulusBulk":"160","boilingPointFootnote":"","ionizationPotentialSecond":"14.65","conductivityThermal":"0.307","discoveryLocation":"Sweden","descr":"Silvery-white metal.","elasticModulusRigidity":"47","discoverer":"Nils Sefstrom","ionicRadius":"0.59","numberOfProtons":"23","abundanceSea":"2.5x10⁻³","atomicMass":"50.9415","ionizationPotentialFirst":"6.74","molarVolume":"8.55","hardnessScaleVickers":"628","enthalpyOfAtomization":"514.6","density":"6.0","enthalpyOfFusion":"17.57","opticalRefractiveIndex":"","qualitativeSolubility":"insoluble in H₂0; soluble in acid","name":"Vanadium","specificHeat":"0.489","atomicMassUncertainty":1,"valenceElectronPotential":"120","covalentRadius":"1.22","electronWorkFunction":"4.3","valenceElectrons":[{"3d":"3"},{"4s":"2"}],"atomicMassKnownAccurately":true,"period":"4","symbol":"V","nuclidesAndIsotopes":[{"nuclideSymbol":"V40","decayEnergy":"","decayModes":"","zp":"","halfLife":"","nn":"17","nuclearSpin":"","daughterIsotopes":"","isotopicComposition":"Syn","atomicMass":"40.011"},{"nuclideSymbol":"V41","decayEnergy":"","decayModes":"","zp":"","halfLife":"","nn":"18","nuclearSpin":"","daughterIsotopes":"","isotopicComposition":"Syn","atomicMass":"40.999"},{"nuclideSymbol":"V42","decayEnergy":"","decayModes":"","zp":"","halfLife":"<55ns","nn":"19","nuclearSpin":"","daughterIsotopes":"","isotopicComposition":"Syn","atomicMass":"41.991"},{"nuclideSymbol":"V43","decayEnergy":"11.300","decayModes":"ξ","zp":"","halfLife":">800ms","nn":"20","nuclearSpin":"7\/2-","daughterIsotopes":"Ti43","isotopicComposition":"Syn","atomicMass":"42.981"},{"nuclideSymbol":"V44","decayEnergy":"13.700","decayModes":"ξ","zp":"","halfLife":"90ms","nn":"21","nuclearSpin":"2+","daughterIsotopes":"Ti44","isotopicComposition":"Syn","atomicMass":"43.9744"},{"nuclideSymbol":"","decayEnergy":"8.580","decayModes":"ξ + α","zp":"","halfLife":"90ms","nn":"","nuclearSpin":"","daughterIsotopes":"Ca40","isotopicComposition":"","atomicMass":""},{"nuclideSymbol":"MS","decayEnergy":"13.700","decayModes":"ξ","zp":"","halfLife":"~150ms","nn":"","nuclearSpin":"6+","daughterIsotopes":"Ti44","isotopicComposition":"Syn","atomicMass":"0.000MeV"},{"nuclideSymbol":"V45","decayEnergy":"7.133","decayModes":"ξ","zp":"","halfLife":"547ms","nn":"22","nuclearSpin":"7\/2-","daughterIsotopes":"Ti45","isotopicComposition":"Syn","atomicMass":"44.9658"},{"nuclideSymbol":"V46","decayEnergy":"7.051","decayModes":"ξ","zp":"","halfLife":"422.37ms","nn":"23","nuclearSpin":"0+","daughterIsotopes":"Ti46","isotopicComposition":"Syn","atomicMass":"45.9602"},{"nuclideSymbol":"V47","decayEnergy":"2.928","decayModes":"ξ","zp":"","halfLife":"32.6m","nn":"24","nuclearSpin":"3\/2-","daughterIsotopes":"Ti47","isotopicComposition":"Syn","atomicMass":"46.9549"},{"nuclideSymbol":"V48","decayEnergy":"4.012","decayModes":"ξ","zp":"","halfLife":"15.9735d","nn":"25","nuclearSpin":"4+","daughterIsotopes":"Ti48","isotopicComposition":"Syn","atomicMass":"47.9523"},{"nuclideSymbol":"V49","decayEnergy":"0.602","decayModes":"ξ","zp":"","halfLife":"330d","nn":"26","nuclearSpin":"7\/2-","daughterIsotopes":"Ti49","isotopicComposition":"Syn","atomicMass":"48.9485"},{"nuclideSymbol":"V50","decayEnergy":"2.208","decayModes":"ξ","zp":"83","halfLife":"1.4E¹⁷y","nn":"27","nuclearSpin":"6+","daughterIsotopes":"Ti50","isotopicComposition":"0.25","atomicMass":"49.9472"},{"nuclideSymbol":"","decayEnergy":"1.037","decayModes":"β-","zp":"17","halfLife":"1.4E¹⁷y","nn":"","nuclearSpin":"","daughterIsotopes":"Cr50","isotopicComposition":"","atomicMass":""},{"nuclideSymbol":"V51","nuclearSpin":"7\/2-","decayModes":"","halfLife":"Stable","nn":"28","daughterIsotopes":"","isotopicComposition":"99.75","atomicMass":"50.944"},{"nuclideSymbol":"V52","decayEnergy":"3.976","decayModes":"β-","zp":"","halfLife":"3.743m","nn":"29","nuclearSpin":"3+","daughterIsotopes":"Cr52","isotopicComposition":"Syn","atomicMass":"51.9448"},{"nuclideSymbol":"V53","decayEnergy":"3.436","decayModes":"β-","zp":"","halfLife":"1.61m","nn":"30","nuclearSpin":"7\/2-","daughterIsotopes":"Cr53","isotopicComposition":"Syn","atomicMass":"52.9443"},{"nuclideSymbol":"V54","decayEnergy":"7.042","decayModes":"β-","zp":"","halfLife":"49.8s","nn":"31","nuclearSpin":"3+","daughterIsotopes":"Cr54","isotopicComposition":"Syn","atomicMass":"53.9464"},{"nuclideSymbol":"V55","decayEnergy":"5.960","decayModes":"β-","zp":"","halfLife":"6.54s","nn":"32","nuclearSpin":"7\/2-","daughterIsotopes":"Cr55","isotopicComposition":"Syn","atomicMass":"54.947"},{"nuclideSymbol":"V56","decayEnergy":"","decayModes":"","zp":"","halfLife":"230ms","nn":"33","nuclearSpin":"3+","daughterIsotopes":"","isotopicComposition":"Syn","atomicMass":"55.95"},{"nuclideSymbol":"V57","decayEnergy":"","decayModes":"","zp":"","halfLife":"320ms","nn":"34","nuclearSpin":"7\/2-","daughterIsotopes":"","isotopicComposition":"Syn","atomicMass":"56.952"},{"nuclideSymbol":"V58","decayEnergy":"11.600","decayModes":"β-","zp":"","halfLife":"200ms","nn":"35","nuclearSpin":"3+","daughterIsotopes":"Cr58","isotopicComposition":"Syn","atomicMass":"57.957"},{"nuclideSymbol":"V59","decayEnergy":"9.900","decayModes":"β-","zp":"","halfLife":"130ms","nn":"36","nuclearSpin":"7\/2-","daughterIsotopes":"Cr59","isotopicComposition":"Syn","atomicMass":"58.959"},{"nuclideSymbol":"V60","decayEnergy":"","decayModes":"","zp":"","halfLife":"200ms","nn":"37","nuclearSpin":"3+","daughterIsotopes":"","isotopicComposition":"Syn","atomicMass":"59.965"},{"nuclideSymbol":"V61","decayEnergy":"","decayModes":"","zp":"","halfLife":">150ns","nn":"38","nuclearSpin":"","daughterIsotopes":"","isotopicComposition":"Syn","atomicMass":"60.967"},{"nuclideSymbol":"V62","decayEnergy":"","decayModes":"","zp":"","halfLife":"","nn":"39","nuclearSpin":"3+","daughterIsotopes":"","isotopicComposition":"Syn","atomicMass":"61.973"},{"nuclideSymbol":"V63","decayEnergy":"","decayModes":"","zp":"","halfLife":"","nn":"40","nuclearSpin":"7\/2-","daughterIsotopes":"","isotopicComposition":"Syn","atomicMass":"62.977"}],"elasticModulusYoungs":"128","atomicMassFootnote":"","incompatibilities":"Strong oxidizers, ammonium nitrate","fillingOrbital":[{"3d":"3"}],"atomicRadius":"1.92","enthalpyOfVaporization":"458.6","heatOfVaporization":"0.452","hardnessScaleBrinell":"628","group":"5","atomicNumber":23,"relativeGasDensity":"","ionizationPotentialThird":"29.31","crossSection":"5.06","electroChemicalEquivalent":"0.38013","electronConfiguration":{"3p":"6","4s":"2","2p":"6","3s":"2","2s":"2","3d":"3","1s":"2"},"criticalTemperature":"","heatOfFusion":""}