{"hardnessScaleMohs":"7.5","opticalReflectivity":"62","meltingPointFootnote":"","conductivityElectrical":"0.189","standardCondition":"Solid","crystalStructure":"CubicBody","coefficientOfLinealThermalExpansion":"0.0000046","flammabilityClass":"Combustable","molarHeatCapacity":"24.27","numberOfNeutrons":"110","series":"Transition Metal","vaporPressure":{"pa100k":"5550","pa100kFootnote":"","pa100Footnote":"","pa100":"3864","pa1Footnote":"s","pa1":"3204","pa1kFootnote":"","pa1k":"4306","pa10kFootnote":"","pa10Footnote":"","pa10k":"4854","pa10":"3500"},"casRegistryNumber":"7440-33-7","oxidationStates":"6, 5, 4, 3, 2","lineSpectra":[{"intensity":"0","airWavelength":"0","spectrum":"TBD"}],"numberOfElectrons":"74","magneticSusceptibility":"+53","atomicVolume":"9.53","abundanceCrust":"1.25","boilingPoint":"5555","discoveryYear":"1783","electroNegativity":"2.36","meltingPoint":"3422","elasticModulusBulk":"310","boilingPointFootnote":"","ionizationPotentialSecond":"","conductivityThermal":"1.74","discoveryLocation":"Spain","descr":"Hard silver-white metal.","elasticModulusRigidity":"161","discoverer":"Fausto and Juan José de Elhuyar","ionicRadius":"0.62","numberOfProtons":"74","abundanceSea":"1x10⁻⁴","atomicMass":"183.84","molarVolume":"9.5","ionizationPotentialFirst":"7.98","hardnessScaleVickers":"3430","enthalpyOfAtomization":"837","density":"19.3","enthalpyOfFusion":"35.23","opticalRefractiveIndex":"","qualitativeSolubility":"","name":"Tungsten","specificHeat":"0.132","atomicMassUncertainty":1,"valenceElectronPotential":"140","covalentRadius":"1.3","electronWorkFunction":"4.55","valenceElectrons":[{"5d":"4"},{"6s":"2"}],"atomicMassKnownAccurately":true,"period":"6","symbol":"W","nuclidesAndIsotopes":[{"nuclideSymbol":"","decayEnergy":"","decayModes":"","zp":"","halfLife":"","nn":"","nuclearSpin":"","daughterIsotopes":"","isotopicComposition":"","atomicMass":""}],"elasticModulusYoungs":"411","atomicMassFootnote":"","incompatibilities":"Bromine trifluoride, chlorine trifluoride, fluorine, iodine pentafluoride","fillingOrbital":[{"5d":"4"}],"atomicRadius":"2.02","enthalpyOfVaporization":"799.1","heatOfVaporization":"824","hardnessScaleBrinell":"2570","group":"6","atomicNumber":74,"relativeGasDensity":"","ionizationPotentialThird":"","crossSection":"18.5","electroChemicalEquivalent":"1.1432","electronConfiguration":{"3d":"10","5s":"2","4s":"2","3s":"2","4f":"14","5p":"6","2s":"2","4p":"6","1s":"2","3p":"6","2p":"6","5d":"4","4d":"10","6s":"2"},"criticalTemperature":"","heatOfFusion":"35.4"}