{"elasticModulus":"","opticalReflectivity":"","meltingPointFootnote":"triple point @ 81.6kPa","conductivityElectrical":"","standardCondition":"Gas","crystalStructure":"CubicFace","coefficientOfLinealThermalExpansion":"","flammabilityClass":"","molarHeatCapacity":"20.786","numberOfNeutrons":"77","series":"Noble Gas","vaporPressure":{"pa100k":"-108.4","pa100kFootnote":"","pa100Footnote":"s","pa100":"-170","pa1Footnote":"s","pa1":"-190","pa1kFootnote":"s","pa1k":"-155.8","pa10kFootnote":"s","pa10Footnote":"s","pa10k":"-136","pa10":"-181"},"casRegistryNumber":"7440-63-3","oxidationStates":"0","lineSpectra":[{"intensity":"0","airWavelength":"0","spectrum":"TBD"}],"numberOfElectrons":"54","magneticSusceptibility":"-45.5","atomicVolume":"37.3","abundanceCrust":"3x10⁻⁵","boilingPoint":"-108.12","discoveryYear":"1898","electroNegativity":"0","meltingPoint":"-111.7","boilingPointFootnote":"","ionizationPotentialSecond":"21.21","conductivityThermal":"0.0000569","discoveryLocation":"Great Britain","descr":"Colorless, odorless, taseless noble gas.","discoverer":"Sir William Ramsay and M. W. Travers","ionicRadius":"","numberOfProtons":"54","opticalRefractiveIndex":"1.000702","abundanceSea":"5x10⁻⁵","atomicMass":"131.293","molarVolume":"42.9","ionizationPotentialFirst":"12.13","enthalpyOfFusion":"2.3","hardnessScale":"","density":"5.366","enthalpyOfAtomization":"","qualitativeSolubility":"soluble in H₂0","specificHeat":"0.158","name":"Xenon","valenceElectronPotential":"","atomicMassUncertainty":6,"covalentRadius":"1.31","electronWorkFunction":"","valenceElectrons":[{"5s":"2"},{"5p":"6"}],"atomicMassKnownAccurately":true,"period":"5","symbol":"Xe","nuclidesAndIsotopes":[{"nuclideSymbol":"","decayEnergy":"","decayModes":"","zp":"","halfLife":"","nn":"","nuclearSpin":"","daughterIsotopes":"","isotopicComposition":"","atomicMass":""}],"atomicMassFootnote":"g m ","incompatibilities":"","fillingOrbital":[{"5p":"6"}],"atomicRadius":"1.24","enthalpyOfVaporization":"12.64","heatOfVaporization":"12.636","group":"18","atomicNumber":54,"relativeGasDensity":"","ionizationPotentialThird":"32.1","crossSection":"24.5","electroChemicalEquivalent":"","electronConfiguration":{"4p":"6","5s":"2","3p":"6","4s":"2","2p":"6","3s":"2","2s":"2","3d":"10","1s":"2","4d":"10","5p":"6"},"criticalTemperature":"16.62","heatOfFusion":"2.297"}