{"hardnessScaleMohs":"","opticalReflectivity":"","meltingPointFootnote":"","conductivityElectrical":"0.0166","standardCondition":"Solid","crystalStructure":"Hexagonal","coefficientOfLinealThermalExpansion":"0.0000108","flammabilityClass":"Non-combustible solid (except as dust)","molarHeatCapacity":"26.53","numberOfNeutrons":"50","series":"Transition Metal","vaporPressure":{"pa10":"1802.3","pa100kFootnote":"i","pa100Footnote":"i","pa100":"2047","pa1Footnote":"","pa1":"1610.1","pa1kFootnote":"i","pa1k":"2354","pa10kFootnote":"i","pa10Footnote":"","pa10k":"2763","pa100k":"3334"},"casRegistryNumber":"7440-65-5","oxidationStates":"3","lineSpectra":[{"intensity":"0","airWavelength":"0","spectrum":"TBD"}],"numberOfElectrons":"39","magneticSusceptibility":"+187.7","atomicVolume":"19.8","abundanceCrust":"3.3x10¹","boilingPoint":"3345","discoveryYear":"1794","electroNegativity":"1.22","meltingPoint":"1522","elasticModulusBulk":"41","boilingPointFootnote":"","ionizationPotentialSecond":"12.24","conductivityThermal":"0.172","discoveryLocation":"Finland","descr":"Silvery metal.","elasticModulusRigidity":"26","discoverer":"Johann Gadolin","ionicRadius":"0.9","numberOfProtons":"39","abundanceSea":"1.3x10⁻⁵","atomicMass":"88.90585","molarVolume":"19.89","ionizationPotentialFirst":"6.38","hardnessScaleVickers":"","enthalpyOfAtomization":"418","density":"4.47","enthalpyOfFusion":"17.15","opticalRefractiveIndex":"","qualitativeSolubility":"reacts with H₂0; soluble in diluted acid","name":"Yttrium","specificHeat":"0.298","atomicMassUncertainty":2,"valenceElectronPotential":"48","covalentRadius":"1.62","electronWorkFunction":"3.1","valenceElectrons":[{"4d":"1"},{"5s":"2"}],"atomicMassKnownAccurately":true,"period":"5","symbol":"Y","nuclidesAndIsotopes":[{"nuclideSymbol":"Y77","decayEnergy":"11.000","decayModes":"ξ","zp":"","halfLife":"","nn":"38","nuclearSpin":"","daughterIsotopes":"Sr77","isotopicComposition":"Syn","atomicMass":"76.95"},{"nuclideSymbol":"","decayEnergy":"6.300","decayModes":"ξ + P","zp":"","halfLife":"","nn":"","nuclearSpin":"","daughterIsotopes":"Rb76","isotopicComposition":"","atomicMass":""},{"nuclideSymbol":"Y78","decayEnergy":"","decayModes":"","zp":"","halfLife":">150ns","nn":"39","nuclearSpin":"","daughterIsotopes":"","isotopicComposition":"Syn","atomicMass":"77.944"},{"nuclideSymbol":"Y79","decayEnergy":"7.100","decayModes":"ξ","zp":"","halfLife":"14.8s","nn":"40","nuclearSpin":"5\/2+","daughterIsotopes":"Sr79","isotopicComposition":"Syn","atomicMass":"78.937"},{"nuclideSymbol":"","decayEnergy":"1.300","decayModes":"ξ + P","zp":"","halfLife":"14.8s","nn":"","nuclearSpin":"","daughterIsotopes":"Rb78","isotopicComposition":"","atomicMass":""},{"nuclideSymbol":"Y80","decayEnergy":"9.100","decayModes":"ξ","zp":"","halfLife":"35s","nn":"41","nuclearSpin":"3, 4, 5","daughterIsotopes":"Sr80","isotopicComposition":"Syn","atomicMass":"79.934"},{"nuclideSymbol":"Y81","decayEnergy":"5.510","decayModes":"ξ","zp":"","halfLife":"70.4s","nn":"42","nuclearSpin":"5\/2+","daughterIsotopes":"Sr81","isotopicComposition":"Syn","atomicMass":"80.9291"},{"nuclideSymbol":"Y82","decayEnergy":"7.820","decayModes":"ξ","zp":"","halfLife":"9.5s","nn":"43","nuclearSpin":"1+","daughterIsotopes":"Sr82","isotopicComposition":"Syn","atomicMass":"81.927"},{"nuclideSymbol":"Y83","decayEnergy":"4.470","decayModes":"ξ","zp":"","halfLife":"7.08m","nn":"44","nuclearSpin":"9\/2+","daughterIsotopes":"Sr83","isotopicComposition":"Syn","atomicMass":"82.9224"},{"nuclideSymbol":"MS","decayEnergy":"4.532","decayModes":"ξ","zp":"60","halfLife":"2.85m","nn":"","nuclearSpin":"3\/2-","daughterIsotopes":"Sr83","isotopicComposition":"Syn","atomicMass":"0.062MeV"},{"nuclideSymbol":"","decayEnergy":"0.062","decayModes":"IT","zp":"40","halfLife":"2.85m","nn":"","nuclearSpin":"","daughterIsotopes":"Y83","isotopicComposition":"","atomicMass":""},{"nuclideSymbol":"Y84","decayEnergy":"6.490","decayModes":"ξ","zp":"","halfLife":"4.6s","nn":"45","nuclearSpin":"1+","daughterIsotopes":"Sr84","isotopicComposition":"Syn","atomicMass":"83.9204"},{"nuclideSymbol":"MS","decayEnergy":"6.490","decayModes":"ξ","zp":"","halfLife":"39.5m","nn":"","nuclearSpin":"5-","daughterIsotopes":"Sr84","isotopicComposition":"Syn","atomicMass":"0.000MeV"},{"nuclideSymbol":"Y85","decayEnergy":"3.250","decayModes":"ξ","zp":"","halfLife":"2.68h","nn":"46","nuclearSpin":"1\/2-","daughterIsotopes":"Sr85","isotopicComposition":"Syn","atomicMass":"84.9164"},{"nuclideSymbol":"MS","decayEnergy":"0.020","decayModes":"IT","zp":"<0.002","halfLife":"4.86h","nn":"","nuclearSpin":"9\/2+","daughterIsotopes":"Y85","isotopicComposition":"Syn","atomicMass":"0.020MeV"},{"nuclideSymbol":"","decayEnergy":"3.270","decayModes":"ξ","zp":"","halfLife":"4.86h","nn":"","nuclearSpin":"","daughterIsotopes":"Sr85","isotopicComposition":"","atomicMass":""},{"nuclideSymbol":"Y86","decayEnergy":"5.240","decayModes":"ξ","zp":"","halfLife":"14.74h","nn":"47","nuclearSpin":"4-","daughterIsotopes":"Sr86","isotopicComposition":"Syn","atomicMass":"85.9149"},{"nuclideSymbol":"MS","decayEnergy":"0.218","decayModes":"IT","zp":"99.31","halfLife":"48m","nn":"","nuclearSpin":"8+","daughterIsotopes":"","isotopicComposition":"Syn","atomicMass":"0.218MeV"},{"nuclideSymbol":"","decayEnergy":"5.458","decayModes":"ξ","zp":"0.7","halfLife":"48m","nn":"","nuclearSpin":"","daughterIsotopes":"Sr86","isotopicComposition":"","atomicMass":""},{"nuclideSymbol":"Y87","decayEnergy":"1.862","decayModes":"ξ","zp":"","halfLife":"79.8h","nn":"48","nuclearSpin":"1\/2-","daughterIsotopes":"Sr87","isotopicComposition":"Syn","atomicMass":"86.9109"},{"nuclideSymbol":"MS","decayEnergy":"0.381","decayModes":"IT","zp":"98.43","halfLife":"13.37h","nn":"","nuclearSpin":"9\/2+","daughterIsotopes":"","isotopicComposition":"Syn","atomicMass":"0.380MeV"},{"nuclideSymbol":"","decayEnergy":"2.243","decayModes":"ξ","zp":"1.57","halfLife":"13.37h","nn":"","nuclearSpin":"","daughterIsotopes":"Sr87","isotopicComposition":"","atomicMass":""},{"nuclideSymbol":"Y88","decayEnergy":"3.623","decayModes":"ξ","zp":"","halfLife":"106.65d","nn":"49","nuclearSpin":"4-","daughterIsotopes":"Sr88","isotopicComposition":"Syn","atomicMass":"87.9095"},{"nuclideSymbol":"MS","decayEnergy":"","decayModes":"IT","zp":"","halfLife":"13.9ms","nn":"","nuclearSpin":"8+","daughterIsotopes":"","isotopicComposition":"Syn","atomicMass":""},{"nuclideSymbol":"Y89","decayEnergy":"","decayModes":"","zp":"","halfLife":"Stable","nn":"50","nuclearSpin":"1\/2-","daughterIsotopes":"","isotopicComposition":"100","atomicMass":"88.9059"},{"nuclideSymbol":"MS","decayEnergy":"0.909","decayModes":"IT","zp":"","halfLife":"16.06s","nn":"","nuclearSpin":"9\/2+","daughterIsotopes":"","isotopicComposition":"Syn","atomicMass":"0.909MeV"},{"nuclideSymbol":"Y90","decayEnergy":"2.282","decayModes":"β-","zp":"","halfLife":"64h","nn":"51","nuclearSpin":"2-","daughterIsotopes":"Zr90","isotopicComposition":"Syn","atomicMass":"89.9072"},{"nuclideSymbol":"MS","decayEnergy":"2.964","decayModes":"β-","zp":"0.0018","halfLife":"3.19h","nn":"","nuclearSpin":"7+","daughterIsotopes":"Zr90","isotopicComposition":"Syn","atomicMass":"0.682MeV"},{"nuclideSymbol":"","decayEnergy":"0.682","decayModes":"IT","zp":"","halfLife":"3.19h","nn":"","nuclearSpin":"","daughterIsotopes":"","isotopicComposition":"","atomicMass":""},{"nuclideSymbol":"Y91","decayEnergy":"","decayModes":"β-","zp":"","halfLife":"58.51d","nn":"52","nuclearSpin":"0.5","daughterIsotopes":"","isotopicComposition":"Syn","atomicMass":"90.907"},{"nuclideSymbol":"MS","decayEnergy":"","decayModes":"IT","zp":"","halfLife":"49.71m","nn":"","nuclearSpin":"9\/2+","daughterIsotopes":"","isotopicComposition":"Syn","atomicMass":"91"},{"nuclideSymbol":"Y92","decayEnergy":"3.639","decayModes":"β-","zp":"","halfLife":"3.54h","nn":"53","nuclearSpin":"2-","daughterIsotopes":"Zr92","isotopicComposition":"Syn","atomicMass":"91.9089"},{"nuclideSymbol":"Y93","decayEnergy":"2.893","decayModes":"β-","zp":"","halfLife":"10.18h","nn":"54","nuclearSpin":"1\/2-","daughterIsotopes":"Zr93","isotopicComposition":"Syn","atomicMass":"92.9096"},{"nuclideSymbol":"MS","decayEnergy":"0.759","decayModes":"IT","zp":"","halfLife":"0.82s","nn":"","nuclearSpin":"7\/2+","daughterIsotopes":"","isotopicComposition":"Syn","atomicMass":"0.758MeV"},{"nuclideSymbol":"Y94","decayEnergy":"4.919","decayModes":"β-","zp":"","halfLife":"18.7m","nn":"55","nuclearSpin":"2-","daughterIsotopes":"Zr94","isotopicComposition":"Syn","atomicMass":"93.9116"},{"nuclideSymbol":"Y95","decayEnergy":"4.420","decayModes":"β-","zp":"","halfLife":"10.3m","nn":"56","nuclearSpin":"1\/2-","daughterIsotopes":"Zr95","isotopicComposition":"Syn","atomicMass":"94.9128"},{"nuclideSymbol":"Y96","decayEnergy":"7.087","decayModes":"β-","zp":"","halfLife":"5.34s","nn":"57","nuclearSpin":"0-","daughterIsotopes":"Zr96","isotopicComposition":"Syn","atomicMass":"95.9159"},{"nuclideSymbol":"MS","decayEnergy":"7.087","decayModes":"β-","zp":"","halfLife":"9.6s","nn":"","nuclearSpin":"8+","daughterIsotopes":"Zr96","isotopicComposition":"Syn","atomicMass":"0.000MeV"},{"nuclideSymbol":"Y97","decayEnergy":"1.108","decayModes":"β- + N","zp":"0.05","halfLife":"3.75s","nn":"58","nuclearSpin":"1\/2-","daughterIsotopes":"Zr96","isotopicComposition":"Syn","atomicMass":"96.9181"},{"nuclideSymbol":"","decayEnergy":"6.688","decayModes":"β-","zp":"","halfLife":"3.75s","nn":"","nuclearSpin":"","daughterIsotopes":"Zr97","isotopicComposition":"","atomicMass":""},{"nuclideSymbol":"MS","decayEnergy":"7.356","decayModes":"β-","zp":">99.3","halfLife":"1.17s","nn":"","nuclearSpin":"9\/2+","daughterIsotopes":"Zr97","isotopicComposition":"Syn","atomicMass":"0.668MeV"},{"nuclideSymbol":"","decayEnergy":"0.668","decayModes":"IT","zp":"<0.7","halfLife":"1.17s","nn":"","nuclearSpin":"","daughterIsotopes":"","isotopicComposition":"","atomicMass":""},{"nuclideSymbol":"","decayEnergy":"1.776","decayModes":"β- + N","zp":"<0.08","halfLife":"1.17s","nn":"","nuclearSpin":"","daughterIsotopes":"Zr96","isotopicComposition":"","atomicMass":""},{"nuclideSymbol":"MS","decayEnergy":"3.523","decayModes":"IT","zp":">80","halfLife":"142ms","nn":"","nuclearSpin":"27\/2-","daughterIsotopes":"","isotopicComposition":"Syn","atomicMass":"3.523MeV"},{"nuclideSymbol":"","decayEnergy":"10.211","decayModes":"β-","zp":"<20","halfLife":"142ms","nn":"","nuclearSpin":"","daughterIsotopes":"Zr97","isotopicComposition":"","atomicMass":""},{"nuclideSymbol":"Y98","decayEnergy":"2.443","decayModes":"β- + N","zp":"0.33","halfLife":"0.548s","nn":"59","nuclearSpin":"0-","daughterIsotopes":"Zr97","isotopicComposition":"Syn","atomicMass":"97.9222"},{"nuclideSymbol":"","decayEnergy":"8.830","decayModes":"β-","zp":"","halfLife":"0.548s","nn":"","nuclearSpin":"","daughterIsotopes":"Zr98","isotopicComposition":"","atomicMass":""},{"nuclideSymbol":"MS","decayEnergy":"8.830","decayModes":"β-","zp":"90","halfLife":"2s","nn":"","nuclearSpin":"4, 5","daughterIsotopes":"Zr98","isotopicComposition":"Syn","atomicMass":"0.000MeV"},{"nuclideSymbol":"","decayEnergy":"","decayModes":"IT","zp":"<20","halfLife":"2s","nn":"","nuclearSpin":"","daughterIsotopes":"Y98","isotopicComposition":"","atomicMass":""},{"nuclideSymbol":"","decayEnergy":"2.443","decayModes":"β- + N","zp":"3.4","halfLife":"2s","nn":"","nuclearSpin":"","daughterIsotopes":"Zr97","isotopicComposition":"","atomicMass":""},{"nuclideSymbol":"Y99","decayEnergy":"2.990","decayModes":"β- + N","zp":"1.9","halfLife":"1.470s","nn":"60","nuclearSpin":"5\/2+","daughterIsotopes":"Zr98","isotopicComposition":"Syn","atomicMass":"98.9246"},{"nuclideSymbol":"","decayEnergy":"7.567","decayModes":"β-","zp":"","halfLife":"1.470s","nn":"","nuclearSpin":"","daughterIsotopes":"Zr99","isotopicComposition":"","atomicMass":""},{"nuclideSymbol":"Y100","decayEnergy":"2.400","decayModes":"β- + N","zp":"0.92","halfLife":"735ms","nn":"61","nuclearSpin":"1-, 2-","daughterIsotopes":"Zr99","isotopicComposition":"Syn","atomicMass":"99.9278"},{"nuclideSymbol":"","decayEnergy":"9.310","decayModes":"β-","zp":"","halfLife":"735ms","nn":"","nuclearSpin":"","daughterIsotopes":"Zr100","isotopicComposition":"","atomicMass":""},{"nuclideSymbol":"MS","decayEnergy":"9.310","decayModes":"β-","zp":"","halfLife":"0.94s","nn":"","nuclearSpin":"3, 4, 5","daughterIsotopes":"Zr100","isotopicComposition":"Syn","atomicMass":"0.000MeV"},{"nuclideSymbol":"Y101","decayEnergy":"3.620","decayModes":"β- + N","zp":"1.94","halfLife":"0.45s","nn":"62","nuclearSpin":"5\/2+","daughterIsotopes":"Zr100","isotopicComposition":"Syn","atomicMass":"100.93"},{"nuclideSymbol":"","decayEnergy":"8.550","decayModes":"β-","zp":"","halfLife":"0.45s","nn":"","nuclearSpin":"","daughterIsotopes":"Zr101","isotopicComposition":"","atomicMass":""},{"nuclideSymbol":"Y102","decayEnergy":"9.850","decayModes":"β-","zp":"","halfLife":"0.36s","nn":"63","nuclearSpin":"low","daughterIsotopes":"Zr102","isotopicComposition":"Syn","atomicMass":"101.9336"},{"nuclideSymbol":"MS","decayEnergy":"9.850","decayModes":"β-","zp":"","halfLife":"0.3s","nn":"","nuclearSpin":"high","daughterIsotopes":"Zr102","isotopicComposition":"Syn","atomicMass":"0.000MeV"},{"nuclideSymbol":"Y103","decayEnergy":"4.900","decayModes":"β- + N","zp":"8","halfLife":"0.23s","nn":"64","nuclearSpin":"5\/2+","daughterIsotopes":"Zr102","isotopicComposition":"Syn","atomicMass":"102.937"},{"nuclideSymbol":"","decayEnergy":"9.600","decayModes":"β-","zp":"","halfLife":"0.23s","nn":"","nuclearSpin":"","daughterIsotopes":"Zr103","isotopicComposition":"","atomicMass":""},{"nuclideSymbol":"Y104","decayEnergy":"11.800","decayModes":"β-","zp":"","halfLife":">150ns","nn":"65","nuclearSpin":"","daughterIsotopes":"Zr104","isotopicComposition":"Syn","atomicMass":"103.941"},{"nuclideSymbol":"Y105","decayEnergy":"","decayModes":"","zp":"","halfLife":">150ns","nn":"66","nuclearSpin":"","daughterIsotopes":"","isotopicComposition":"Syn","atomicMass":"104.945"},{"nuclideSymbol":"Y106","decayEnergy":"","decayModes":"","zp":"","halfLife":"","nn":"67","nuclearSpin":"","daughterIsotopes":"","isotopicComposition":"Syn","atomicMass":"105.95"}],"elasticModulusYoungs":"64","atomicMassFootnote":"","incompatibilities":"Oxidizers","fillingOrbital":[{"4d":"1"}],"atomicRadius":"2.27","enthalpyOfVaporization":"393","heatOfVaporization":"363","hardnessScaleBrinell":"589","group":"3","atomicNumber":39,"relativeGasDensity":"","ionizationPotentialThird":"20.54","crossSection":"1.3","electroChemicalEquivalent":"1.1057","electronConfiguration":{"4p":"6","5s":"2","3p":"6","4s":"2","2p":"6","3s":"2","2s":"2","3d":"10","1s":"2","4d":"1"},"criticalTemperature":"","heatOfFusion":"11.4"}