{"hardnessScaleMohs":"","opticalReflectivity":"","meltingPointFootnote":"","conductivityElectrical":"0.0351","standardCondition":"Solid","crystalStructure":"CubicFace","coefficientOfLinealThermalExpansion":"0.000000299","flammabilityClass":"","molarHeatCapacity":"26.74","numberOfNeutrons":"103","series":"Lanthanide","vaporPressure":{"pa100k":"1192","pa100kFootnote":"i","pa100Footnote":"s","pa100":"637","pa1Footnote":"s","pa1":"463","pa1kFootnote":"s","pa1k":"774","pa10kFootnote":"i","pa10Footnote":"s","pa10k":"993","pa10":"540"},"casRegistryNumber":"7440-64-4","oxidationStates":"3, 2","lineSpectra":[{"intensity":"0","airWavelength":"0","spectrum":"TBD"}],"numberOfElectrons":"70","magneticSusceptibility":"+67","atomicVolume":"24.79","abundanceCrust":"3.2","boilingPoint":"1196","discoveryYear":"1878","electroNegativity":"1.1","meltingPoint":"819","elasticModulusBulk":"31","boilingPointFootnote":"","ionizationPotentialSecond":"12.188","conductivityThermal":"0.349","discoveryLocation":"Switzerland","descr":"Soft silvery rare earth metal.","elasticModulusRigidity":"9.9","discoverer":"Jean de Marignac","ionicRadius":"0.858","numberOfProtons":"70","abundanceSea":"8.2x10⁻⁷","atomicMass":"173.04","molarVolume":"24.84","ionizationPotentialFirst":"6.254","hardnessScaleVickers":"206","enthalpyOfAtomization":"180","density":"6.90","enthalpyOfFusion":"7.66","opticalRefractiveIndex":"","qualitativeSolubility":"soluble in diluted acid","name":"Ytterbium","specificHeat":"0.155","atomicMassUncertainty":3,"valenceElectronPotential":"50.3","covalentRadius":"1.74","electronWorkFunction":"","valenceElectrons":[{"4f":"14"},{"6s":"2"}],"atomicMassKnownAccurately":true,"period":"6","symbol":"Yb","nuclidesAndIsotopes":[{"nuclideSymbol":"","decayEnergy":"","decayModes":"","zp":"","halfLife":"","nn":"","nuclearSpin":"","daughterIsotopes":"","isotopicComposition":"","atomicMass":""}],"elasticModulusYoungs":"24","atomicMassFootnote":"g","incompatibilities":"","fillingOrbital":[{"4f":"14"}],"atomicRadius":"2.4","enthalpyOfVaporization":"128.9","heatOfVaporization":"128.9","hardnessScaleBrinell":"343","group":"","atomicNumber":70,"relativeGasDensity":"","ionizationPotentialThird":"25.03","crossSection":"37","electroChemicalEquivalent":"2.152","electronConfiguration":{"3d":"10","5s":"2","4s":"2","3s":"2","4f":"14","5p":"6","2s":"2","4p":"6","1s":"2","3p":"6","2p":"6","4d":"10","6s":"2"},"criticalTemperature":"","heatOfFusion":"7.66"}