{"hardnessScaleMohs":"2.5","opticalReflectivity":"80","meltingPointFootnote":"","conductivityElectrical":"0.166","standardCondition":"Solid","crystalStructure":"Hexagonal","coefficientOfLinealThermalExpansion":"0.0000397","flammabilityClass":"","molarHeatCapacity":"25.390","numberOfNeutrons":"35","series":"Transition Metal","vaporPressure":{"pa10":"397","pa100kFootnote":"e","pa100Footnote":"","pa100":"477","pa1Footnote":"s","pa1":"377","pa1kFootnote":"","pa1k":"579","pa10kFootnote":"","pa10Footnote":"s","pa10k":"717","pa100k":"912"},"casRegistryNumber":"7440-66-6","oxidationStates":"2","lineSpectra":[{"intensity":"100","airWavelength":"4680.1359","spectrum":"Zn I"},{"intensity":"250","airWavelength":"4722.1569","spectrum":"Zn I"},{"intensity":"400","airWavelength":"4810.5321","spectrum":"Zn I"},{"intensity":"80","airWavelength":"4911.6269","spectrum":"Zn II"},{"intensity":"120","airWavelength":"4924.0132","spectrum":"Zn II"},{"intensity":"100","airWavelength":"5894.3607","spectrum":"Zn II"},{"intensity":"40","airWavelength":"6214.5778","spectrum":"Zn II"},{"intensity":"30","airWavelength":"6362.3458","spectrum":"Zn I"}],"numberOfElectrons":"30","magneticSusceptibility":"+9.15","atomicVolume":"9.2","abundanceCrust":"7x10¹","boilingPoint":"907","discoveryYear":"1746","electroNegativity":"1.65","meltingPoint":"419.53","elasticModulusBulk":"70","boilingPointFootnote":"","ionizationPotentialSecond":"16.964","conductivityThermal":"1.16","discoveryLocation":"Germany","descr":"Hard brittle shiny bluish-white transition metal.","elasticModulusRigidity":"43","discoverer":"Andreas Marggraf","ionicRadius":"0.74","numberOfProtons":"30","abundanceSea":"4.9x10⁻³","atomicMass":"65.409","ionizationPotentialFirst":"9.394","molarVolume":"9.16","hardnessScaleVickers":"","enthalpyOfAtomization":"129.7","density":"7.14","enthalpyOfFusion":"7.32","opticalRefractiveIndex":"1.00205","qualitativeSolubility":"soluble in acid, alkaline solutions","name":"Zinc","specificHeat":"0.388","atomicMassUncertainty":4,"valenceElectronPotential":"38.9","covalentRadius":"1.25","electronWorkFunction":"4.33","valenceElectrons":[{"4s":"2"}],"atomicMassKnownAccurately":true,"period":"4","symbol":"Zn","nuclidesAndIsotopes":[{"nuclideSymbol":"Zn54","decayEnergy":"","decayModes":"","zp":"","halfLife":"","nn":"24","nuclearSpin":"0+","daughterIsotopes":"","isotopicComposition":"Syn","atomicMass":"53.993"},{"nuclideSymbol":"Zn55","decayEnergy":"","decayModes":"","zp":"","halfLife":"","nn":"25","nuclearSpin":"","daughterIsotopes":"","isotopicComposition":"Syn","atomicMass":"54.984"},{"nuclideSymbol":"Zn56","decayEnergy":"","decayModes":"","zp":"","halfLife":"","nn":"26","nuclearSpin":"0+","daughterIsotopes":"","isotopicComposition":"Syn","atomicMass":"55.972"},{"nuclideSymbol":"Zn57","decayEnergy":"13.930","decayModes":"ξ + P","zp":">=65","halfLife":"40ms","nn":"27","nuclearSpin":"7\/2-","daughterIsotopes":"Ni56","isotopicComposition":"Syn","atomicMass":"56.965"},{"nuclideSymbol":"","decayEnergy":"14.620","decayModes":"ξ","zp":"","halfLife":"40ms","nn":"","nuclearSpin":"","daughterIsotopes":"Cu57","isotopicComposition":"","atomicMass":""},{"nuclideSymbol":"Zn58","decayEnergy":"9.370","decayModes":"ξ","zp":"","halfLife":"65ms","nn":"28","nuclearSpin":"0+","daughterIsotopes":"Cu58","isotopicComposition":"Syn","atomicMass":"57.9546"},{"nuclideSymbol":"Zn59","decayEnergy":"5.680","decayModes":"ξ + P","zp":"0.1","halfLife":"182ms","nn":"29","nuclearSpin":"3\/2-","daughterIsotopes":"Ni58","isotopicComposition":"Syn","atomicMass":"58.9493"},{"nuclideSymbol":"","decayEnergy":"9.090","decayModes":"ξ","zp":"","halfLife":"182ms","nn":"","nuclearSpin":"","daughterIsotopes":"Cu59","isotopicComposition":"","atomicMass":""},{"nuclideSymbol":"Zn60","decayEnergy":"4.158","decayModes":"ξ","zp":"","halfLife":"2.38m","nn":"30","nuclearSpin":"0+","daughterIsotopes":"Cu60","isotopicComposition":"Syn","atomicMass":"59.9418"},{"nuclideSymbol":"Zn61","decayEnergy":"5.637","decayModes":"ξ","zp":"","halfLife":"89.1s","nn":"31","nuclearSpin":"3\/2-","daughterIsotopes":"Cu61","isotopicComposition":"Syn","atomicMass":"60.9395"},{"nuclideSymbol":"Zn62","decayEnergy":"1.627","decayModes":"ξ","zp":"","halfLife":"9.186h","nn":"32","nuclearSpin":"0+","daughterIsotopes":"Cu62","isotopicComposition":"Syn","atomicMass":"61.9343"},{"nuclideSymbol":"Zn63","decayEnergy":"3.367","decayModes":"ξ","zp":"","halfLife":"38.47m","nn":"33","nuclearSpin":"3\/2-","daughterIsotopes":"Cu63","isotopicComposition":"Syn","atomicMass":"62.9332"},{"nuclideSymbol":"Zn64","decayEnergy":"","decayModes":"","zp":"","halfLife":"Stable","nn":"34","nuclearSpin":"0+","daughterIsotopes":"","isotopicComposition":"48.6","atomicMass":"63.9292"},{"nuclideSymbol":"Zn65","decayEnergy":"1.352","decayModes":"ξ","zp":"","halfLife":"244.26d","nn":"35","nuclearSpin":"5\/2-","daughterIsotopes":"Cu65","isotopicComposition":"Syn","atomicMass":"64.9293"},{"nuclideSymbol":"Zn66","decayEnergy":"","decayModes":"","zp":"","halfLife":"Stable","nn":"36","nuclearSpin":"0+","daughterIsotopes":"","isotopicComposition":"27.9","atomicMass":"65.926"},{"nuclideSymbol":"Zn67","decayEnergy":"","decayModes":"","zp":"","halfLife":"Stable","nn":"37","nuclearSpin":"5\/2-","daughterIsotopes":"","isotopicComposition":"4.1","atomicMass":"66.9271"},{"nuclideSymbol":"Zn68","decayEnergy":"","decayModes":"","zp":"","halfLife":"Stable","nn":"38","nuclearSpin":"0+","daughterIsotopes":"","isotopicComposition":"18.8","atomicMass":"67.9249"},{"nuclideSymbol":"Zn69","decayEnergy":"0.906","decayModes":"β-","zp":"","halfLife":"56.4m","nn":"39","nuclearSpin":"1\/2-","daughterIsotopes":"Ga69","isotopicComposition":"Syn","atomicMass":"68.9266"},{"nuclideSymbol":"MS","decayEnergy":"0.439","decayModes":"IT","zp":"99.97","halfLife":"13.76h","nn":"","nuclearSpin":"9\/2+","daughterIsotopes":"","isotopicComposition":"Syn","atomicMass":"0.439MeV"},{"nuclideSymbol":"","decayEnergy":"1.345","decayModes":"β-","zp":"0.03","halfLife":"13.76h","nn":"","nuclearSpin":"","daughterIsotopes":"Ga69","isotopicComposition":"","atomicMass":""},{"nuclideSymbol":"Zn70","decayEnergy":"","decayModes":"","zp":"","halfLife":">5E¹⁴y","nn":"40","nuclearSpin":"0+","daughterIsotopes":"","isotopicComposition":"0.6","atomicMass":"69.9253"},{"nuclideSymbol":"Zn71","decayEnergy":"2.813","decayModes":"β-","zp":"","halfLife":"2.45m","nn":"41","nuclearSpin":"1\/2-","daughterIsotopes":"Ga71","isotopicComposition":"Syn","atomicMass":"70.9277"},{"nuclideSymbol":"MS","decayEnergy":"0.158","decayModes":"IT","zp":"<=0.05","halfLife":"3.96h","nn":"","nuclearSpin":"9\/2+","daughterIsotopes":"","isotopicComposition":"Syn","atomicMass":"0.158MeV"},{"nuclideSymbol":"","decayEnergy":"2.971","decayModes":"β-","zp":"","halfLife":"3.96h","nn":"","nuclearSpin":"","daughterIsotopes":"Ga71","isotopicComposition":"","atomicMass":""},{"nuclideSymbol":"Zn72","decayEnergy":"0.458","decayModes":"β-","zp":"","halfLife":"46.5h","nn":"42","nuclearSpin":"0+","daughterIsotopes":"Ga72","isotopicComposition":"Syn","atomicMass":"71.9269"},{"nuclideSymbol":"Zn73","decayEnergy":"4.290","decayModes":"β-","zp":"","halfLife":"23.5s","nn":"43","nuclearSpin":"1\/2-","daughterIsotopes":"Ga73","isotopicComposition":"Syn","atomicMass":"72.9298"},{"nuclideSymbol":"MS","decayEnergy":"4.486","decayModes":"β-","zp":"","halfLife":"5.8s","nn":"","nuclearSpin":"7\/2+","daughterIsotopes":"Ga73","isotopicComposition":"Syn","atomicMass":"0.196MeV"},{"nuclideSymbol":"","decayEnergy":"0.196","decayModes":"IT","zp":"","halfLife":"5.8s","nn":"","nuclearSpin":"","daughterIsotopes":"","isotopicComposition":"","atomicMass":""},{"nuclideSymbol":"Zn74","decayEnergy":"2.340","decayModes":"β-","zp":"","halfLife":"95.6s","nn":"44","nuclearSpin":"0+","daughterIsotopes":"Ga74","isotopicComposition":"Syn","atomicMass":"73.9295"},{"nuclideSymbol":"Zn75","decayEnergy":"6.000","decayModes":"β-","zp":"","halfLife":"10.2s","nn":"45","nuclearSpin":"7\/2+","daughterIsotopes":"Ga75","isotopicComposition":"Syn","atomicMass":"74.9329"},{"nuclideSymbol":"Zn76","decayEnergy":"4.160","decayModes":"β-","zp":"","halfLife":"5.7s","nn":"46","nuclearSpin":"0+","daughterIsotopes":"Ga76","isotopicComposition":"Syn","atomicMass":"75.933"},{"nuclideSymbol":"Zn77","decayEnergy":"7.270","decayModes":"β-","zp":"","halfLife":"2.08s","nn":"47","nuclearSpin":"7\/2+","daughterIsotopes":"Ga77","isotopicComposition":"Syn","atomicMass":"76.937"},{"nuclideSymbol":"MS","decayEnergy":"8.042","decayModes":"β-","zp":"<50","halfLife":"1.05s","nn":"","nuclearSpin":"1\/2-","daughterIsotopes":"Ga77","isotopicComposition":"Syn","atomicMass":"0.772MeV"},{"nuclideSymbol":"","decayEnergy":"0.772","decayModes":"IT","zp":">50","halfLife":"1.05s","nn":"","nuclearSpin":"","daughterIsotopes":"","isotopicComposition":"","atomicMass":""},{"nuclideSymbol":"Zn78","decayEnergy":"6.440","decayModes":"β-","zp":"","halfLife":"1.47s","nn":"48","nuclearSpin":"0+","daughterIsotopes":"Ga78","isotopicComposition":"Syn","atomicMass":"77.939"},{"nuclideSymbol":"Zn79","decayEnergy":"2.200","decayModes":"β- + N","zp":"1.3","halfLife":"995ms","nn":"49","nuclearSpin":"9\/2+","daughterIsotopes":"Ga78","isotopicComposition":"Syn","atomicMass":"78.943"},{"nuclideSymbol":"","decayEnergy":"9.090","decayModes":"β-","zp":"","halfLife":"995ms","nn":"","nuclearSpin":"","daughterIsotopes":"Ga79","isotopicComposition":"","atomicMass":""},{"nuclideSymbol":"Zn80","decayEnergy":"2.640","decayModes":"β- + N","zp":"1","halfLife":"0.545s","nn":"50","nuclearSpin":"0+","daughterIsotopes":"Ga79","isotopicComposition":"Syn","atomicMass":"79.944"},{"nuclideSymbol":"","decayEnergy":"7.290","decayModes":"β-","zp":"","halfLife":"0.545s","nn":"","nuclearSpin":"","daughterIsotopes":"Ga80","isotopicComposition":"","atomicMass":""},{"nuclideSymbol":"Zn81","decayEnergy":"4.900","decayModes":"β- + N","zp":"7.5","halfLife":"0.29s","nn":"51","nuclearSpin":"","daughterIsotopes":"Ga80","isotopicComposition":"Syn","atomicMass":"80.95"},{"nuclideSymbol":"","decayEnergy":"11.900","decayModes":"β-","zp":"","halfLife":"0.29s","nn":"","nuclearSpin":"","daughterIsotopes":"Ga81","isotopicComposition":"","atomicMass":""},{"nuclideSymbol":"Zn82","decayEnergy":"","decayModes":"β-","zp":"","halfLife":"","nn":"52","nuclearSpin":"0+","daughterIsotopes":"","isotopicComposition":"Syn","atomicMass":"81.955"},{"nuclideSymbol":"Zn83","decayEnergy":"","decayModes":"β-","zp":"","halfLife":"","nn":"53","nuclearSpin":"5\/2+","daughterIsotopes":"","isotopicComposition":"Syn","atomicMass":""}],"elasticModulusYoungs":"108","atomicMassFootnote":"","incompatibilities":"","fillingOrbital":[{"3d":"10"}],"atomicRadius":"1.53","enthalpyOfVaporization":"115.5","heatOfVaporization":"115.3","hardnessScaleBrinell":"412","group":"12","atomicNumber":30,"relativeGasDensity":"","ionizationPotentialThird":"39.722","crossSection":"1.1","electroChemicalEquivalent":"1.22","electronConfiguration":{"3p":"6","4s":"2","2p":"6","3s":"2","2s":"2","3d":"10","1s":"2"},"criticalTemperature":"","heatOfFusion":"7.322"}