{"hardnessScaleMohs":"3","opticalReflectivity":"","meltingPointFootnote":"","conductivityElectrical":"0.0236","standardCondition":"Solid","crystalStructure":"Hexagonal","coefficientOfLinealThermalExpansion":"0.00000585","flammabilityClass":"Combustible","molarHeatCapacity":"25.36","numberOfNeutrons":"51","series":"Transition Metal","vaporPressure":{"pa10":"2618","pa100kFootnote":"","pa100Footnote":"","pa100":"2924","pa1Footnote":"","pa1":"2366","pa1kFootnote":"","pa1k":"3302","pa10kFootnote":"","pa10Footnote":"","pa10k":"3780","pa100k":"4405"},"casRegistryNumber":"7440-67-7","oxidationStates":"4","lineSpectra":[{"intensity":"0","airWavelength":"0","spectrum":"TBD"}],"numberOfElectrons":"40","magneticSusceptibility":"+120","atomicVolume":"14.1","abundanceCrust":"1.65x10²","boilingPoint":"4409","discoveryYear":"1789","electroNegativity":"1.33","meltingPoint":"1855","elasticModulusBulk":"","boilingPointFootnote":"","ionizationPotentialSecond":"13.13","conductivityThermal":"0.227","discoveryLocation":"Germany","descr":"Rare grayish-white metal.","elasticModulusRigidity":"33","discoverer":"Martin Klaproth","ionicRadius":"0.72","numberOfProtons":"40","abundanceSea":"3x10⁻⁵","atomicMass":"91.224","molarVolume":"14.06","ionizationPotentialFirst":"6.84","hardnessScaleVickers":"903","enthalpyOfAtomization":"598","density":"6.52","enthalpyOfFusion":"20.9","opticalRefractiveIndex":"","qualitativeSolubility":"soluble in hot concentrated acid","name":"Zirconium","specificHeat":"0.278","atomicMassUncertainty":2,"valenceElectronPotential":"80","covalentRadius":"1.45","electronWorkFunction":"4.05","valenceElectrons":[{"4d":"2"},{"5s":"2"}],"atomicMassKnownAccurately":true,"period":"5","symbol":"Zr","nuclidesAndIsotopes":[{"nuclideSymbol":"Zr79","decayEnergy":"","decayModes":"","zp":"","halfLife":"","nn":"39","nuclearSpin":"","daughterIsotopes":"","isotopicComposition":"Syn","atomicMass":"78.949"},{"nuclideSymbol":"Zr80","decayEnergy":"","decayModes":"","zp":"","halfLife":">150ns","nn":"40","nuclearSpin":"0+","daughterIsotopes":"","isotopicComposition":"Syn","atomicMass":"79.941"},{"nuclideSymbol":"Zr81","decayEnergy":"7.200","decayModes":"ξ","zp":"","halfLife":"15s","nn":"41","nuclearSpin":"","daughterIsotopes":"Y81","isotopicComposition":"Syn","atomicMass":"80.937"},{"nuclideSymbol":"","decayEnergy":"4.200","decayModes":"ξ + P","zp":"","halfLife":"15s","nn":"","nuclearSpin":"","daughterIsotopes":"Sr80","isotopicComposition":"","atomicMass":""},{"nuclideSymbol":"Zr82","decayEnergy":"4.000","decayModes":"ξ","zp":"","halfLife":"32s","nn":"42","nuclearSpin":"0+","daughterIsotopes":"Y82","isotopicComposition":"Syn","atomicMass":"81.931"},{"nuclideSymbol":"Zr83","decayEnergy":"5.870","decayModes":"ξ","zp":"","halfLife":"44s","nn":"43","nuclearSpin":"1\/2-","daughterIsotopes":"Y83","isotopicComposition":"Syn","atomicMass":"82.929"},{"nuclideSymbol":"","decayEnergy":"2.260","decayModes":"ξ + P","zp":"","halfLife":"44s","nn":"","nuclearSpin":"","daughterIsotopes":"Sr82","isotopicComposition":"","atomicMass":""},{"nuclideSymbol":"Zr84","decayEnergy":"","decayModes":"","zp":"","halfLife":"25.9m","nn":"44","nuclearSpin":"0+","daughterIsotopes":"","isotopicComposition":"Syn","atomicMass":"83.923"},{"nuclideSymbol":"Zr85","decayEnergy":"4.690","decayModes":"ξ","zp":"","halfLife":"7.86m","nn":"45","nuclearSpin":"7\/2+","daughterIsotopes":"Y85","isotopicComposition":"Syn","atomicMass":"84.921"},{"nuclideSymbol":"MS","decayEnergy":"0.292","decayModes":"IT","zp":"<=92","halfLife":"10.9s","nn":"","nuclearSpin":"1\/2-","daughterIsotopes":"","isotopicComposition":"Syn","atomicMass":"0.292MeV"},{"nuclideSymbol":"","decayEnergy":"4.982","decayModes":"ξ","zp":">8","halfLife":"10.9s","nn":"","nuclearSpin":"","daughterIsotopes":"Y85","isotopicComposition":"","atomicMass":""},{"nuclideSymbol":"Zr86","decayEnergy":"1.480","decayModes":"ξ","zp":"","halfLife":"16.5h","nn":"46","nuclearSpin":"0+","daughterIsotopes":"Y86","isotopicComposition":"Syn","atomicMass":"85.9165"},{"nuclideSymbol":"Zr87","decayEnergy":"3.665","decayModes":"ξ","zp":"","halfLife":"1.68h","nn":"47","nuclearSpin":"9\/2+","daughterIsotopes":"Y87","isotopicComposition":"Syn","atomicMass":"86.9148"},{"nuclideSymbol":"MS","decayEnergy":"0.336","decayModes":"IT","zp":"","halfLife":"14s","nn":"","nuclearSpin":"1\/2-","daughterIsotopes":"","isotopicComposition":"Syn","atomicMass":"0.336MeV"},{"nuclideSymbol":"Zr88","decayEnergy":"0.670","decayModes":"ξ","zp":"","halfLife":"83.4d","nn":"48","nuclearSpin":"0+","daughterIsotopes":"Y88","isotopicComposition":"Syn","atomicMass":"87.9102"},{"nuclideSymbol":"Zr89","decayEnergy":"2.832","decayModes":"ξ","zp":"","halfLife":"78.41h","nn":"49","nuclearSpin":"9\/2+","daughterIsotopes":"Y89","isotopicComposition":"Syn","atomicMass":"88.9089"},{"nuclideSymbol":"MS","decayEnergy":"0.588","decayModes":"IT","zp":"93.77","halfLife":"4.18m","nn":"","nuclearSpin":"1\/2-","daughterIsotopes":"","isotopicComposition":"Syn","atomicMass":"0.588MeV"},{"nuclideSymbol":"","decayEnergy":"3.420","decayModes":"ξ","zp":"6.23","halfLife":"4.18m","nn":"","nuclearSpin":"","daughterIsotopes":"Y89","isotopicComposition":"","atomicMass":""},{"nuclideSymbol":"Zr90","decayEnergy":"","decayModes":"","zp":"","halfLife":"Stable","nn":"50","nuclearSpin":"0+","daughterIsotopes":"","isotopicComposition":"51.45","atomicMass":"89.9047"},{"nuclideSymbol":"MS","decayEnergy":"2.319","decayModes":"IT","zp":"","halfLife":"809.2ms","nn":"","nuclearSpin":"5-","daughterIsotopes":"Zr90","isotopicComposition":"Syn","atomicMass":"2.319MeV"},{"nuclideSymbol":"Zr91","decayEnergy":"","decayModes":"","zp":"","halfLife":"Stable","nn":"51","nuclearSpin":"5\/2+","daughterIsotopes":"","isotopicComposition":"11.22","atomicMass":"90.9057"},{"nuclideSymbol":"Zr92","decayEnergy":"","decayModes":"","zp":"","halfLife":"Stable","nn":"52","nuclearSpin":"0+","daughterIsotopes":"","isotopicComposition":"17.15","atomicMass":"91.905"},{"nuclideSymbol":"Zr93","decayEnergy":"0.091","decayModes":"β-","zp":"","halfLife":"1530000y","nn":"53","nuclearSpin":"5\/2+","daughterIsotopes":"Nb93","isotopicComposition":"Syn","atomicMass":"92.9065"},{"nuclideSymbol":"Zr94","decayEnergy":"","decayModes":"","zp":"","halfLife":"Stable","nn":"54","nuclearSpin":"0+","daughterIsotopes":"","isotopicComposition":"17.38","atomicMass":"93.9063"},{"nuclideSymbol":"Zr95","decayEnergy":"1.125","decayModes":"β-","zp":"","halfLife":"64.02d","nn":"55","nuclearSpin":"5\/2+","daughterIsotopes":"Nb95","isotopicComposition":"Syn","atomicMass":"94.908"},{"nuclideSymbol":"Zr96","decayEnergy":"3.350","decayModes":"β-","zp":"","halfLife":">3.8E¹⁹y","nn":"56","nuclearSpin":"0+","daughterIsotopes":"Mo96","isotopicComposition":"2.8","atomicMass":"95.9083"},{"nuclideSymbol":"Zr97","decayEnergy":"2.658","decayModes":"β-","zp":"","halfLife":"16.91h","nn":"57","nuclearSpin":"1\/2+","daughterIsotopes":"Nb97","isotopicComposition":"Syn","atomicMass":"96.911"},{"nuclideSymbol":"Zr98","decayEnergy":"2.261","decayModes":"β-","zp":"","halfLife":"30.7s","nn":"58","nuclearSpin":"0+","daughterIsotopes":"Nb98","isotopicComposition":"Syn","atomicMass":"97.9127"},{"nuclideSymbol":"Zr99","decayEnergy":"4.558","decayModes":"β-","zp":"","halfLife":"2.1s","nn":"59","nuclearSpin":"1\/2+","daughterIsotopes":"Nb99","isotopicComposition":"Syn","atomicMass":"98.9165"},{"nuclideSymbol":"Zr100","decayEnergy":"3.340","decayModes":"β-","zp":"","halfLife":"7.1s","nn":"60","nuclearSpin":"0+","daughterIsotopes":"Nb100","isotopicComposition":"Syn","atomicMass":"99.9178"},{"nuclideSymbol":"Zr101","decayEnergy":"5.490","decayModes":"β-","zp":"","halfLife":"2.3s","nn":"61","nuclearSpin":"3\/2+","daughterIsotopes":"Nb101","isotopicComposition":"Syn","atomicMass":"100.9211"},{"nuclideSymbol":"Zr102","decayEnergy":"4.610","decayModes":"β-","zp":"","halfLife":"2.9s","nn":"62","nuclearSpin":"0+","daughterIsotopes":"Nb102","isotopicComposition":"Syn","atomicMass":"101.923"},{"nuclideSymbol":"Zr103","decayEnergy":"6.950","decayModes":"β-","zp":"","halfLife":"1.3s","nn":"63","nuclearSpin":"5\/2-","daughterIsotopes":"Nb103","isotopicComposition":"Syn","atomicMass":"102.927"},{"nuclideSymbol":"Zr104","decayEnergy":"5.900","decayModes":"β-","zp":"","halfLife":"1.2s","nn":"64","nuclearSpin":"0+","daughterIsotopes":"Nb104","isotopicComposition":"Syn","atomicMass":"103.929"},{"nuclideSymbol":"Zr105","decayEnergy":"8.500","decayModes":"β-","zp":"","halfLife":"0.6s","nn":"65","nuclearSpin":"","daughterIsotopes":"Nb105","isotopicComposition":"Syn","atomicMass":"104.933"},{"nuclideSymbol":"Zr106","decayEnergy":"","decayModes":"","zp":"","halfLife":">150ns","nn":"66","nuclearSpin":"0+","daughterIsotopes":"","isotopicComposition":"Syn","atomicMass":"105.936"},{"nuclideSymbol":"Zr107","decayEnergy":"","decayModes":"","zp":"","halfLife":">150ns","nn":"67","nuclearSpin":"","daughterIsotopes":"","isotopicComposition":"Syn","atomicMass":"106.941"},{"nuclideSymbol":"Zr108","decayEnergy":"","decayModes":"","zp":"","halfLife":"","nn":"68","nuclearSpin":"0+","daughterIsotopes":"","isotopicComposition":"Syn","atomicMass":"107.944"}],"elasticModulusYoungs":"68","atomicMassFootnote":"g","incompatibilities":"Potassium nitrate, oxidizers.","fillingOrbital":[{"4d":"2"}],"atomicRadius":"2.16","enthalpyOfVaporization":"581.6","heatOfVaporization":"58.2","hardnessScaleBrinell":"650","group":"4","atomicNumber":40,"relativeGasDensity":"","ionizationPotentialThird":"22.99","crossSection":"0.182","electroChemicalEquivalent":"0.8509","electronConfiguration":{"4p":"6","5s":"2","3p":"6","4s":"2","2p":"6","3s":"2","2s":"2","3d":"10","1s":"2","4d":"2"},"criticalTemperature":"","heatOfFusion":"16.9"}